
     Program PWSCF v.5.0.2 (svn rev. 9392) starts on 28Oct2013 at 23:58: 4 

     This program is part of the open-source Quantum ESPRESSO suite
     for quantum simulation of materials; please cite
         "P. Giannozzi et al., J. Phys.:Condens. Matter 21 395502 (2009);
          URL http://www.quantum-espresso.org", 
     in publications or presentations arising from this work. More details at
     http://www.quantum-espresso.org/quote.php

     Parallel version (MPI & OpenMP), running on     256 processor cores
     Number of MPI processes:               128
     Threads/MPI process:                     2
     R & G space division:  proc/nbgrp/npool/nimage =     128

     Current dimensions of program PWSCF are:
     Max number of different atomic species (ntypx) = 10
     Max number of k-points (npk) =  40000
     Max angular momentum in pseudopotentials (lmaxx) =  3
     Waiting for input...
     Reading input from standard input
Warning: card &IONS ignored
Warning: card ION_DYNAMICS='BFGS', ignored
Warning: card / ignored
Warning: card &CELL ignored
Warning: card CELL_DYNAMICS='BFGS', ignored
Warning: card PRESS=0.0, ignored
Warning: card CELL_FACTOR=2.0, ignored
Warning: card / ignored
               file Pd.pbe-n-kjpaw_psl.0.3.0.UPF: wavefunction(s)  5S 4D renormalized

     gamma-point specific algorithms are used

     Subspace diagonalization in iterative solution of the eigenvalue problem:
     scalapack distributed-memory algorithm (size of sub-group:  8*  8 procs)

     Found symmetry operation: I + (  0.1250  0.1250  0.0000)
     This is a supercell, fractional translations are disabled

     Parallelization info
     --------------------
     sticks:   dense  smooth     PW     G-vecs:    dense   smooth      PW
     Min         115     115     37                10660    10660    2070
     Max         118     118     40                10672    10672    2092
     Sum       14865   14865   4997              1365217  1365217  266195
     Tot        7433    7433   2499



     bravais-lattice index     =           14
     lattice parameter (alat)  =      28.3867  a.u.
     unit-cell volume          =   22874.2544 (a.u.)^3
     number of atoms/cell      =          256
     number of atomic types    =            1
     number of electrons       =      2560.00
     number of Kohn-Sham states=         1536
     kinetic-energy cutoff     =      78.0000  Ry
     charge density cutoff     =     232.0000  Ry
     convergence threshold     =      1.0E-07
     mixing beta               =       0.7000
     number of iterations used =            8  TF        mixing
     Exchange-correlation      =  SLA  PW   PBX  PBC ( 1 4 3 4 0)
     EXX-fraction              =        0.00

     celldm(1)=  28.386748  celldm(2)=   1.000000  celldm(3)=   1.000000
     celldm(4)=   0.000000  celldm(5)=   0.000000  celldm(6)=   0.000000

     crystal axes: (cart. coord. in units of alat)
               a(1) = (   1.000000   0.000000   0.000000 )  
               a(2) = (   0.000000   1.000000   0.000000 )  
               a(3) = (   0.000000   0.000000   1.000000 )  

     reciprocal axes: (cart. coord. in units 2 pi/alat)
               b(1) = (  1.000000  0.000000  0.000000 )  
               b(2) = (  0.000000  1.000000  0.000000 )  
               b(3) = (  0.000000  0.000000  1.000000 )  


     PseudoPot. # 1 for Pd read from file:
     /work/e298/e298/benp/pp/Pd.pbe-n-kjpaw_psl.0.3.0.UPF
     MD5 check sum: 1d2b5f02a1678cf25477754a56fa5101
     Pseudo is Projector augmented-wave + core cor, Zval = 10.0
     Generated using "atomic" code by A. Dal Corso  v.5.0.2 svn rev. 9392
     Shape of augmentation charge: PSQ
     Using radial grid of 1235 points,  6 beta functions with: 
                l(1) =   0
                l(2) =   0
                l(3) =   1
                l(4) =   1
                l(5) =   2
                l(6) =   2
     Q(r) pseudized with 0 coefficients 


     atomic species   valence    mass     pseudopotential
        N             10.00   106.42000     Pd( 1.00)

     48 Sym. Ops., with inversion, found



   Cartesian axes

     site n.     atom                  positions (alat units)
         1           N   tau(   1) = (   0.0000000   0.0000000   0.0000000  )
         2           N   tau(   2) = (   0.1250000   0.1250000   0.0000000  )
         3           N   tau(   3) = (   0.1250000   0.0000000   0.1250000  )
         4           N   tau(   4) = (   0.0000000   0.1250000   0.1250000  )
         5           N   tau(   5) = (   0.2500000   0.0000000   0.0000000  )
         6           N   tau(   6) = (   0.2500000   0.1250000   0.1250000  )
         7           N   tau(   7) = (   0.3750000   0.1250000   0.0000000  )
         8           N   tau(   8) = (   0.3750000   0.0000000   0.1250000  )
         9           N   tau(   9) = (   0.0000000   0.0000000   0.2500000  )
        10           N   tau(  10) = (   0.1250000   0.1250000   0.2500000  )
        11           N   tau(  11) = (   0.1250000   0.0000000   0.3750000  )
        12           N   tau(  12) = (   0.0000000   0.1250000   0.3750000  )
        13           N   tau(  13) = (   0.0000000   0.0000000   0.5000000  )
        14           N   tau(  14) = (   0.1250000   0.1250000   0.5000000  )
        15           N   tau(  15) = (   0.1250000   0.0000000   0.6250000  )
        16           N   tau(  16) = (   0.0000000   0.1250000   0.6250000  )
        17           N   tau(  17) = (   0.0000000   0.0000000   0.7500000  )
        18           N   tau(  18) = (   0.1250000   0.1250000   0.7500000  )
        19           N   tau(  19) = (   0.1250000   0.0000000   0.8750000  )
        20           N   tau(  20) = (   0.0000000   0.1250000   0.8750000  )
        21           N   tau(  21) = (   0.0000000   0.2500000   0.0000000  )
        22           N   tau(  22) = (   0.1250000   0.3750000   0.0000000  )
        23           N   tau(  23) = (   0.1250000   0.2500000   0.1250000  )
        24           N   tau(  24) = (   0.0000000   0.3750000   0.1250000  )
        25           N   tau(  25) = (   0.0000000   0.2500000   0.2500000  )
        26           N   tau(  26) = (   0.1250000   0.3750000   0.2500000  )
        27           N   tau(  27) = (   0.1250000   0.2500000   0.3750000  )
        28           N   tau(  28) = (   0.0000000   0.3750000   0.3750000  )
        29           N   tau(  29) = (   0.0000000   0.2500000   0.5000000  )
        30           N   tau(  30) = (   0.1250000   0.3750000   0.5000000  )
        31           N   tau(  31) = (   0.1250000   0.2500000   0.6250000  )
        32           N   tau(  32) = (   0.0000000   0.3750000   0.6250000  )
        33           N   tau(  33) = (   0.0000000   0.2500000   0.7500000  )
        34           N   tau(  34) = (   0.1250000   0.3750000   0.7500000  )
        35           N   tau(  35) = (   0.1250000   0.2500000   0.8750000  )
        36           N   tau(  36) = (   0.0000000   0.3750000   0.8750000  )
        37           N   tau(  37) = (   0.0000000   0.5000000   0.0000000  )
        38           N   tau(  38) = (   0.1250000   0.6250000   0.0000000  )
        39           N   tau(  39) = (   0.1250000   0.5000000   0.1250000  )
        40           N   tau(  40) = (   0.0000000   0.6250000   0.1250000  )
        41           N   tau(  41) = (   0.0000000   0.5000000   0.2500000  )
        42           N   tau(  42) = (   0.1250000   0.6250000   0.2500000  )
        43           N   tau(  43) = (   0.1250000   0.5000000   0.3750000  )
        44           N   tau(  44) = (   0.0000000   0.6250000   0.3750000  )
        45           N   tau(  45) = (   0.0000000   0.5000000   0.5000000  )
        46           N   tau(  46) = (   0.1250000   0.6250000   0.5000000  )
        47           N   tau(  47) = (   0.1250000   0.5000000   0.6250000  )
        48           N   tau(  48) = (   0.0000000   0.6250000   0.6250000  )
        49           N   tau(  49) = (   0.0000000   0.5000000   0.7500000  )
        50           N   tau(  50) = (   0.1250000   0.6250000   0.7500000  )
        51           N   tau(  51) = (   0.1250000   0.5000000   0.8750000  )
        52           N   tau(  52) = (   0.0000000   0.6250000   0.8750000  )
        53           N   tau(  53) = (   0.0000000   0.7500000   0.0000000  )
        54           N   tau(  54) = (   0.1250000   0.8750000   0.0000000  )
        55           N   tau(  55) = (   0.1250000   0.7500000   0.1250000  )
        56           N   tau(  56) = (   0.0000000   0.8750000   0.1250000  )
        57           N   tau(  57) = (   0.0000000   0.7500000   0.2500000  )
        58           N   tau(  58) = (   0.1250000   0.8750000   0.2500000  )
        59           N   tau(  59) = (   0.1250000   0.7500000   0.3750000  )
        60           N   tau(  60) = (   0.0000000   0.8750000   0.3750000  )
        61           N   tau(  61) = (   0.0000000   0.7500000   0.5000000  )
        62           N   tau(  62) = (   0.1250000   0.8750000   0.5000000  )
        63           N   tau(  63) = (   0.1250000   0.7500000   0.6250000  )
        64           N   tau(  64) = (   0.0000000   0.8750000   0.6250000  )
        65           N   tau(  65) = (   0.0000000   0.7500000   0.7500000  )
        66           N   tau(  66) = (   0.1250000   0.8750000   0.7500000  )
        67           N   tau(  67) = (   0.1250000   0.7500000   0.8750000  )
        68           N   tau(  68) = (   0.0000000   0.8750000   0.8750000  )
        69           N   tau(  69) = (   0.2500000   0.0000000   0.2500000  )
        70           N   tau(  70) = (   0.3750000   0.1250000   0.2500000  )
        71           N   tau(  71) = (   0.3750000   0.0000000   0.3750000  )
        72           N   tau(  72) = (   0.2500000   0.1250000   0.3750000  )
        73           N   tau(  73) = (   0.2500000   0.0000000   0.5000000  )
        74           N   tau(  74) = (   0.3750000   0.1250000   0.5000000  )
        75           N   tau(  75) = (   0.3750000   0.0000000   0.6250000  )
        76           N   tau(  76) = (   0.2500000   0.1250000   0.6250000  )
        77           N   tau(  77) = (   0.2500000   0.0000000   0.7500000  )
        78           N   tau(  78) = (   0.3750000   0.1250000   0.7500000  )
        79           N   tau(  79) = (   0.3750000   0.0000000   0.8750000  )
        80           N   tau(  80) = (   0.2500000   0.1250000   0.8750000  )
        81           N   tau(  81) = (   0.2500000   0.2500000   0.0000000  )
        82           N   tau(  82) = (   0.3750000   0.3750000   0.0000000  )
        83           N   tau(  83) = (   0.3750000   0.2500000   0.1250000  )
        84           N   tau(  84) = (   0.2500000   0.3750000   0.1250000  )
        85           N   tau(  85) = (   0.2500000   0.2500000   0.2500000  )
        86           N   tau(  86) = (   0.3750000   0.3750000   0.2500000  )
        87           N   tau(  87) = (   0.3750000   0.2500000   0.3750000  )
        88           N   tau(  88) = (   0.2500000   0.3750000   0.3750000  )
        89           N   tau(  89) = (   0.2500000   0.2500000   0.5000000  )
        90           N   tau(  90) = (   0.3750000   0.3750000   0.5000000  )
        91           N   tau(  91) = (   0.3750000   0.2500000   0.6250000  )
        92           N   tau(  92) = (   0.2500000   0.3750000   0.6250000  )
        93           N   tau(  93) = (   0.2500000   0.2500000   0.7500000  )
        94           N   tau(  94) = (   0.3750000   0.3750000   0.7500000  )
        95           N   tau(  95) = (   0.3750000   0.2500000   0.8750000  )
        96           N   tau(  96) = (   0.2500000   0.3750000   0.8750000  )
        97           N   tau(  97) = (   0.2500000   0.5000000   0.0000000  )
        98           N   tau(  98) = (   0.3750000   0.6250000   0.0000000  )
        99           N   tau(  99) = (   0.3750000   0.5000000   0.1250000  )
       100           N   tau( 100) = (   0.2500000   0.6250000   0.1250000  )
       101           N   tau( 101) = (   0.2500000   0.5000000   0.2500000  )
       102           N   tau( 102) = (   0.3750000   0.6250000   0.2500000  )
       103           N   tau( 103) = (   0.3750000   0.5000000   0.3750000  )
       104           N   tau( 104) = (   0.2500000   0.6250000   0.3750000  )
       105           N   tau( 105) = (   0.2500000   0.5000000   0.5000000  )
       106           N   tau( 106) = (   0.3750000   0.6250000   0.5000000  )
       107           N   tau( 107) = (   0.3750000   0.5000000   0.6250000  )
       108           N   tau( 108) = (   0.2500000   0.6250000   0.6250000  )
       109           N   tau( 109) = (   0.2500000   0.5000000   0.7500000  )
       110           N   tau( 110) = (   0.3750000   0.6250000   0.7500000  )
       111           N   tau( 111) = (   0.3750000   0.5000000   0.8750000  )
       112           N   tau( 112) = (   0.2500000   0.6250000   0.8750000  )
       113           N   tau( 113) = (   0.2500000   0.7500000   0.0000000  )
       114           N   tau( 114) = (   0.3750000   0.8750000   0.0000000  )
       115           N   tau( 115) = (   0.3750000   0.7500000   0.1250000  )
       116           N   tau( 116) = (   0.2500000   0.8750000   0.1250000  )
       117           N   tau( 117) = (   0.2500000   0.7500000   0.2500000  )
       118           N   tau( 118) = (   0.3750000   0.8750000   0.2500000  )
       119           N   tau( 119) = (   0.3750000   0.7500000   0.3750000  )
       120           N   tau( 120) = (   0.2500000   0.8750000   0.3750000  )
       121           N   tau( 121) = (   0.2500000   0.7500000   0.5000000  )
       122           N   tau( 122) = (   0.3750000   0.8750000   0.5000000  )
       123           N   tau( 123) = (   0.3750000   0.7500000   0.6250000  )
       124           N   tau( 124) = (   0.2500000   0.8750000   0.6250000  )
       125           N   tau( 125) = (   0.2500000   0.7500000   0.7500000  )
       126           N   tau( 126) = (   0.3750000   0.8750000   0.7500000  )
       127           N   tau( 127) = (   0.3750000   0.7500000   0.8750000  )
       128           N   tau( 128) = (   0.2500000   0.8750000   0.8750000  )
       129           N   tau( 129) = (   0.5000000   0.0000000   0.0000000  )
       130           N   tau( 130) = (   0.6250000   0.1250000   0.0000000  )
       131           N   tau( 131) = (   0.6250000   0.0000000   0.1250000  )
       132           N   tau( 132) = (   0.5000000   0.1250000   0.1250000  )
       133           N   tau( 133) = (   0.5000000   0.0000000   0.2500000  )
       134           N   tau( 134) = (   0.6250000   0.1250000   0.2500000  )
       135           N   tau( 135) = (   0.6250000   0.0000000   0.3750000  )
       136           N   tau( 136) = (   0.5000000   0.1250000   0.3750000  )
       137           N   tau( 137) = (   0.5000000   0.0000000   0.5000000  )
       138           N   tau( 138) = (   0.6250000   0.1250000   0.5000000  )
       139           N   tau( 139) = (   0.6250000   0.0000000   0.6250000  )
       140           N   tau( 140) = (   0.5000000   0.1250000   0.6250000  )
       141           N   tau( 141) = (   0.5000000   0.0000000   0.7500000  )
       142           N   tau( 142) = (   0.6250000   0.1250000   0.7500000  )
       143           N   tau( 143) = (   0.6250000   0.0000000   0.8750000  )
       144           N   tau( 144) = (   0.5000000   0.1250000   0.8750000  )
       145           N   tau( 145) = (   0.5000000   0.2500000   0.0000000  )
       146           N   tau( 146) = (   0.6250000   0.3750000   0.0000000  )
       147           N   tau( 147) = (   0.6250000   0.2500000   0.1250000  )
       148           N   tau( 148) = (   0.5000000   0.3750000   0.1250000  )
       149           N   tau( 149) = (   0.5000000   0.2500000   0.2500000  )
       150           N   tau( 150) = (   0.6250000   0.3750000   0.2500000  )
       151           N   tau( 151) = (   0.6250000   0.2500000   0.3750000  )
       152           N   tau( 152) = (   0.5000000   0.3750000   0.3750000  )
       153           N   tau( 153) = (   0.5000000   0.2500000   0.5000000  )
       154           N   tau( 154) = (   0.6250000   0.3750000   0.5000000  )
       155           N   tau( 155) = (   0.6250000   0.2500000   0.6250000  )
       156           N   tau( 156) = (   0.5000000   0.3750000   0.6250000  )
       157           N   tau( 157) = (   0.5000000   0.2500000   0.7500000  )
       158           N   tau( 158) = (   0.6250000   0.3750000   0.7500000  )
       159           N   tau( 159) = (   0.6250000   0.2500000   0.8750000  )
       160           N   tau( 160) = (   0.5000000   0.3750000   0.8750000  )
       161           N   tau( 161) = (   0.5000000   0.5000000   0.0000000  )
       162           N   tau( 162) = (   0.6250000   0.6250000   0.0000000  )
       163           N   tau( 163) = (   0.6250000   0.5000000   0.1250000  )
       164           N   tau( 164) = (   0.5000000   0.6250000   0.1250000  )
       165           N   tau( 165) = (   0.5000000   0.5000000   0.2500000  )
       166           N   tau( 166) = (   0.6250000   0.6250000   0.2500000  )
       167           N   tau( 167) = (   0.6250000   0.5000000   0.3750000  )
       168           N   tau( 168) = (   0.5000000   0.6250000   0.3750000  )
       169           N   tau( 169) = (   0.5000000   0.5000000   0.5000000  )
       170           N   tau( 170) = (   0.6250000   0.6250000   0.5000000  )
       171           N   tau( 171) = (   0.6250000   0.5000000   0.6250000  )
       172           N   tau( 172) = (   0.5000000   0.6250000   0.6250000  )
       173           N   tau( 173) = (   0.5000000   0.5000000   0.7500000  )
       174           N   tau( 174) = (   0.6250000   0.6250000   0.7500000  )
       175           N   tau( 175) = (   0.6250000   0.5000000   0.8750000  )
       176           N   tau( 176) = (   0.5000000   0.6250000   0.8750000  )
       177           N   tau( 177) = (   0.5000000   0.7500000   0.0000000  )
       178           N   tau( 178) = (   0.6250000   0.8750000   0.0000000  )
       179           N   tau( 179) = (   0.6250000   0.7500000   0.1250000  )
       180           N   tau( 180) = (   0.5000000   0.8750000   0.1250000  )
       181           N   tau( 181) = (   0.5000000   0.7500000   0.2500000  )
       182           N   tau( 182) = (   0.6250000   0.8750000   0.2500000  )
       183           N   tau( 183) = (   0.6250000   0.7500000   0.3750000  )
       184           N   tau( 184) = (   0.5000000   0.8750000   0.3750000  )
       185           N   tau( 185) = (   0.5000000   0.7500000   0.5000000  )
       186           N   tau( 186) = (   0.6250000   0.8750000   0.5000000  )
       187           N   tau( 187) = (   0.6250000   0.7500000   0.6250000  )
       188           N   tau( 188) = (   0.5000000   0.8750000   0.6250000  )
       189           N   tau( 189) = (   0.5000000   0.7500000   0.7500000  )
       190           N   tau( 190) = (   0.6250000   0.8750000   0.7500000  )
       191           N   tau( 191) = (   0.6250000   0.7500000   0.8750000  )
       192           N   tau( 192) = (   0.5000000   0.8750000   0.8750000  )
       193           N   tau( 193) = (   0.7500000   0.0000000   0.0000000  )
       194           N   tau( 194) = (   0.8750000   0.1250000   0.0000000  )
       195           N   tau( 195) = (   0.8750000   0.0000000   0.1250000  )
       196           N   tau( 196) = (   0.7500000   0.1250000   0.1250000  )
       197           N   tau( 197) = (   0.7500000   0.0000000   0.2500000  )
       198           N   tau( 198) = (   0.8750000   0.1250000   0.2500000  )
       199           N   tau( 199) = (   0.8750000   0.0000000   0.3750000  )
       200           N   tau( 200) = (   0.7500000   0.1250000   0.3750000  )
       201           N   tau( 201) = (   0.7500000   0.0000000   0.5000000  )
       202           N   tau( 202) = (   0.8750000   0.1250000   0.5000000  )
       203           N   tau( 203) = (   0.8750000   0.0000000   0.6250000  )
       204           N   tau( 204) = (   0.7500000   0.1250000   0.6250000  )
       205           N   tau( 205) = (   0.7500000   0.0000000   0.7500000  )
       206           N   tau( 206) = (   0.8750000   0.1250000   0.7500000  )
       207           N   tau( 207) = (   0.8750000   0.0000000   0.8750000  )
       208           N   tau( 208) = (   0.7500000   0.1250000   0.8750000  )
       209           N   tau( 209) = (   0.7500000   0.2500000   0.0000000  )
       210           N   tau( 210) = (   0.8750000   0.3750000   0.0000000  )
       211           N   tau( 211) = (   0.8750000   0.2500000   0.1250000  )
       212           N   tau( 212) = (   0.7500000   0.3750000   0.1250000  )
       213           N   tau( 213) = (   0.7500000   0.2500000   0.2500000  )
       214           N   tau( 214) = (   0.8750000   0.3750000   0.2500000  )
       215           N   tau( 215) = (   0.8750000   0.2500000   0.3750000  )
       216           N   tau( 216) = (   0.7500000   0.3750000   0.3750000  )
       217           N   tau( 217) = (   0.7500000   0.2500000   0.5000000  )
       218           N   tau( 218) = (   0.8750000   0.3750000   0.5000000  )
       219           N   tau( 219) = (   0.8750000   0.2500000   0.6250000  )
       220           N   tau( 220) = (   0.7500000   0.3750000   0.6250000  )
       221           N   tau( 221) = (   0.7500000   0.2500000   0.7500000  )
       222           N   tau( 222) = (   0.8750000   0.3750000   0.7500000  )
       223           N   tau( 223) = (   0.8750000   0.2500000   0.8750000  )
       224           N   tau( 224) = (   0.7500000   0.3750000   0.8750000  )
       225           N   tau( 225) = (   0.7500000   0.5000000   0.0000000  )
       226           N   tau( 226) = (   0.8750000   0.6250000   0.0000000  )
       227           N   tau( 227) = (   0.8750000   0.5000000   0.1250000  )
       228           N   tau( 228) = (   0.7500000   0.6250000   0.1250000  )
       229           N   tau( 229) = (   0.7500000   0.5000000   0.2500000  )
       230           N   tau( 230) = (   0.8750000   0.6250000   0.2500000  )
       231           N   tau( 231) = (   0.8750000   0.5000000   0.3750000  )
       232           N   tau( 232) = (   0.7500000   0.6250000   0.3750000  )
       233           N   tau( 233) = (   0.7500000   0.5000000   0.5000000  )
       234           N   tau( 234) = (   0.8750000   0.6250000   0.5000000  )
       235           N   tau( 235) = (   0.8750000   0.5000000   0.6250000  )
       236           N   tau( 236) = (   0.7500000   0.6250000   0.6250000  )
       237           N   tau( 237) = (   0.7500000   0.5000000   0.7500000  )
       238           N   tau( 238) = (   0.8750000   0.6250000   0.7500000  )
       239           N   tau( 239) = (   0.8750000   0.5000000   0.8750000  )
       240           N   tau( 240) = (   0.7500000   0.6250000   0.8750000  )
       241           N   tau( 241) = (   0.7500000   0.7500000   0.0000000  )
       242           N   tau( 242) = (   0.8750000   0.8750000   0.0000000  )
       243           N   tau( 243) = (   0.8750000   0.7500000   0.1250000  )
       244           N   tau( 244) = (   0.7500000   0.8750000   0.1250000  )
       245           N   tau( 245) = (   0.7500000   0.7500000   0.2500000  )
       246           N   tau( 246) = (   0.8750000   0.8750000   0.2500000  )
       247           N   tau( 247) = (   0.8750000   0.7500000   0.3750000  )
       248           N   tau( 248) = (   0.7500000   0.8750000   0.3750000  )
       249           N   tau( 249) = (   0.7500000   0.7500000   0.5000000  )
       250           N   tau( 250) = (   0.8750000   0.8750000   0.5000000  )
       251           N   tau( 251) = (   0.8750000   0.7500000   0.6250000  )
       252           N   tau( 252) = (   0.7500000   0.8750000   0.6250000  )
       253           N   tau( 253) = (   0.7500000   0.7500000   0.7500000  )
       254           N   tau( 254) = (   0.8750000   0.8750000   0.7500000  )
       255           N   tau( 255) = (   0.8750000   0.7500000   0.8750000  )
       256           N   tau( 256) = (   0.7500000   0.8750000   0.8750000  )

     number of k points=     1  Marzari-Vanderbilt smearing, width (Ry)=  0.0500
                       cart. coord. in units 2pi/alat
        k(    1) = (   0.0000000   0.0000000   0.0000000), wk =   2.0000000

     Dense  grid:   682609 G-vectors     FFT dimensions: ( 144, 144, 144)

     Largest allocated arrays     est. size (Mb)     dimensions
        Kohn-Sham Wavefunctions        24.30 Mb     (   1037, 1536)
        NL pseudopotentials            72.91 Mb     (   1037, 4608)
        Each V/rho on FFT grid          0.63 Mb     (  41472)
        Each G-vector array             0.04 Mb     (   5334)
        G-vector shells                 0.01 Mb     (   1769)
     Largest temporary arrays     est. size (Mb)     dimensions
        Auxiliary wavefunctions        48.61 Mb     (   1037, 6144)
        Each subspace H/S matrix        4.50 Mb     ( 768, 768)
        Each <psi_i|beta_j> matrix     54.00 Mb     (   4608, 1536)
        Arrays for rho mixing           5.06 Mb     (  41472,   8)

     Initial potential from superposition of free atoms

     starting charge 2559.86623, renormalised to 2560.00000
     Starting wfc are 2304 randomized atomic wfcs
     Checking if some PAW data can be deallocated... 

     total cpu time spent up to now is       31.5 secs

     per-process dynamical memory:   175.3 Mb

     Self-consistent Calculation

     iteration #  1     ecut=    78.00 Ry     beta=0.70
     Davidson diagonalization with overlap
     ethr =  1.00E-02,  avg # of iterations =  6.0

     total cpu time spent up to now is      120.2 secs

     total energy              =  -84753.11328702 Ry
     Harris-Foulkes estimate   =  -84765.07862338 Ry
     estimated scf accuracy    <      25.66149376 Ry

     iteration #  2     ecut=    78.00 Ry     beta=0.70
     Davidson diagonalization with overlap
     ethr =  1.00E-03,  avg # of iterations =  7.0

     total cpu time spent up to now is      246.8 secs

     total energy              =  -84758.16472631 Ry
     Harris-Foulkes estimate   =  -84758.39976787 Ry
     estimated scf accuracy    <       1.35837891 Ry

     iteration #  3     ecut=    78.00 Ry     beta=0.70
     Davidson diagonalization with overlap
     ethr =  5.31E-05,  avg # of iterations =  9.0

     total cpu time spent up to now is      426.7 secs

     total energy              =  -84758.56076784 Ry
     Harris-Foulkes estimate   =  -84758.60785915 Ry
     estimated scf accuracy    <       1.94196604 Ry

     iteration #  4     ecut=    78.00 Ry     beta=0.70
     Davidson diagonalization with overlap
     ethr =  5.31E-05,  avg # of iterations =  1.0

     total cpu time spent up to now is      480.5 secs

     total energy              =  -84758.60696495 Ry
     Harris-Foulkes estimate   =  -84758.59964636 Ry
     estimated scf accuracy    <       0.12972040 Ry

     iteration #  5     ecut=    78.00 Ry     beta=0.70
     Davidson diagonalization with overlap
     ethr =  5.07E-06,  avg # of iterations =  3.0

     total cpu time spent up to now is      541.7 secs

     total energy              =  -84758.61249500 Ry
     Harris-Foulkes estimate   =  -84758.62007843 Ry
     estimated scf accuracy    <       0.09802312 Ry

     iteration #  6     ecut=    78.00 Ry     beta=0.70
     Davidson diagonalization with overlap
     ethr =  3.83E-06,  avg # of iterations =  1.0

     total cpu time spent up to now is      594.6 secs

     total energy              =  -84758.61525218 Ry
     Harris-Foulkes estimate   =  -84758.61801935 Ry
     estimated scf accuracy    <       0.01232159 Ry

     iteration #  7     ecut=    78.00 Ry     beta=0.70
     Davidson diagonalization with overlap
     ethr =  4.81E-07,  avg # of iterations =  2.0

     total cpu time spent up to now is      652.9 secs

     total energy              =  -84758.61630542 Ry
     Harris-Foulkes estimate   =  -84758.61691408 Ry
     estimated scf accuracy    <       0.01743909 Ry

     iteration #  8     ecut=    78.00 Ry     beta=0.70
     Davidson diagonalization with overlap
     ethr =  4.81E-07,  avg # of iterations =  1.0

     total cpu time spent up to now is      707.5 secs

     total energy              =  -84758.61671577 Ry
     Harris-Foulkes estimate   =  -84758.61678494 Ry
     estimated scf accuracy    <       0.00358969 Ry

     iteration #  9     ecut=    78.00 Ry     beta=0.70
     Davidson diagonalization with overlap
     ethr =  1.40E-07,  avg # of iterations =  1.0

     total cpu time spent up to now is      761.1 secs

     total energy              =  -84758.61667086 Ry
     Harris-Foulkes estimate   =  -84758.61678443 Ry
     estimated scf accuracy    <       0.00635069 Ry

     iteration # 10     ecut=    78.00 Ry     beta=0.70
     Davidson diagonalization with overlap
     ethr =  1.40E-07,  avg # of iterations =  2.0

     total cpu time spent up to now is      821.6 secs

     total energy              =  -84758.61718814 Ry
     Harris-Foulkes estimate   =  -84758.61730616 Ry
     estimated scf accuracy    <       0.00220576 Ry

     iteration # 11     ecut=    78.00 Ry     beta=0.70
     Davidson diagonalization with overlap
     ethr =  8.62E-08,  avg # of iterations =  1.0

     total cpu time spent up to now is      876.2 secs

     total energy              =  -84758.61734773 Ry
     Harris-Foulkes estimate   =  -84758.61732232 Ry
     estimated scf accuracy    <       0.00023293 Ry

     iteration # 12     ecut=    78.00 Ry     beta=0.70
     Davidson diagonalization with overlap
     ethr =  9.10E-09,  avg # of iterations =  1.0

     total cpu time spent up to now is      930.4 secs

     total energy              =  -84758.61735965 Ry
     Harris-Foulkes estimate   =  -84758.61736462 Ry
     estimated scf accuracy    <       0.00010076 Ry

     iteration # 13     ecut=    78.00 Ry     beta=0.70
     Davidson diagonalization with overlap
     ethr =  3.94E-09,  avg # of iterations =  1.0

     total cpu time spent up to now is      984.0 secs

     total energy              =  -84758.61736500 Ry
     Harris-Foulkes estimate   =  -84758.61736421 Ry
     estimated scf accuracy    <       0.00001456 Ry

     iteration # 14     ecut=    78.00 Ry     beta=0.70
     Davidson diagonalization with overlap
     ethr =  5.69E-10,  avg # of iterations =  3.0

     total cpu time spent up to now is     1048.3 secs

     total energy              =  -84758.61736621 Ry
     Harris-Foulkes estimate   =  -84758.61736727 Ry
     estimated scf accuracy    <       0.00004194 Ry

     iteration # 15     ecut=    78.00 Ry     beta=0.70
     Davidson diagonalization with overlap
     ethr =  5.69E-10,  avg # of iterations =  1.0

     total cpu time spent up to now is     1101.9 secs

     total energy              =  -84758.61736624 Ry
     Harris-Foulkes estimate   =  -84758.61736705 Ry
     estimated scf accuracy    <       0.00002057 Ry

     iteration # 16     ecut=    78.00 Ry     beta=0.70
     Davidson diagonalization with overlap
     ethr =  5.69E-10,  avg # of iterations =  1.0

     total cpu time spent up to now is     1156.2 secs

     total energy              =  -84758.61736660 Ry
     Harris-Foulkes estimate   =  -84758.61736685 Ry
     estimated scf accuracy    <       0.00001570 Ry

     iteration # 17     ecut=    78.00 Ry     beta=0.70
     Davidson diagonalization with overlap
     ethr =  5.69E-10,  avg # of iterations =  1.0

     total cpu time spent up to now is     1210.0 secs

     total energy              =  -84758.61736674 Ry
     Harris-Foulkes estimate   =  -84758.61736697 Ry
     estimated scf accuracy    <       0.00000627 Ry

     iteration # 18     ecut=    78.00 Ry     beta=0.70
     Davidson diagonalization with overlap
     ethr =  2.45E-10,  avg # of iterations =  1.0

     total cpu time spent up to now is     1263.7 secs

     total energy              =  -84758.61736694 Ry
     Harris-Foulkes estimate   =  -84758.61736688 Ry
     estimated scf accuracy    <       0.00000211 Ry

     iteration # 19     ecut=    78.00 Ry     beta=0.70
     Davidson diagonalization with overlap
     ethr =  8.24E-11,  avg # of iterations =  3.0

     total cpu time spent up to now is     1360.3 secs

     total energy              =  -84758.61736618 Ry
     Harris-Foulkes estimate   =  -84758.61736867 Ry
     estimated scf accuracy    <       0.00004779 Ry

     iteration # 20     ecut=    78.00 Ry     beta=0.70
     Davidson diagonalization with overlap
     ethr =  8.24E-11,  avg # of iterations =  2.0

     total cpu time spent up to now is     1425.4 secs

     total energy              =  -84758.61736701 Ry
     Harris-Foulkes estimate   =  -84758.61736717 Ry
     estimated scf accuracy    <       0.00000142 Ry

     iteration # 21     ecut=    78.00 Ry     beta=0.70
     Davidson diagonalization with overlap
     ethr =  5.55E-11,  avg # of iterations =  1.0

     total cpu time spent up to now is     1480.0 secs

     total energy              =  -84758.61736704 Ry
     Harris-Foulkes estimate   =  -84758.61736709 Ry
     estimated scf accuracy    <       0.00000108 Ry

     iteration # 22     ecut=    78.00 Ry     beta=0.70
     Davidson diagonalization with overlap
     ethr =  4.24E-11,  avg # of iterations =  1.0

     total cpu time spent up to now is     1534.3 secs

     total energy              =  -84758.61736707 Ry
     Harris-Foulkes estimate   =  -84758.61736707 Ry
     estimated scf accuracy    <       0.00000025 Ry

     iteration # 23     ecut=    78.00 Ry     beta=0.70
     Davidson diagonalization with overlap
     ethr =  9.90E-12,  avg # of iterations =  1.0

     total cpu time spent up to now is     1587.3 secs

     End of self-consistent calculation

          k = 0.0000 0.0000 0.0000 (133098 PWs)   bands (ev):

     8.3773   9.1764   9.1764   9.1764   9.1764   9.1764   9.1764   9.8637
     9.8637   9.8637   9.8637   9.8637   9.8637   9.8637   9.8637   9.8637
     9.8637   9.8637   9.8637  10.0042  10.0042  10.0042  10.1568  10.1568
    10.1568  10.1568  10.1568  10.1568  10.1568  10.1568  10.1951  10.1951
    10.1951  10.1951  10.3457  10.3457  10.3457  10.4010  10.4010  10.4010
    10.4010  10.4011  10.4011  10.5242  10.5242  10.5242  10.5242  10.5242
    10.5242  10.5242  10.5242  10.5242  10.5242  10.5242  10.5242  10.6779
    10.6779  10.6779  10.6779  10.6779  10.6779  10.6797  10.6797  10.6797
    10.6797  10.6797  10.6797  10.6950  10.6950  10.6950  10.6950  10.6950
    10.6950  10.6950  10.6950  10.6950  10.6950  10.6950  10.6950  10.6950
    10.6950  10.6950  10.6950  10.6950  10.6950  10.6950  10.6950  10.6950
    10.6950  10.6950  10.6950  10.7410  10.7410  10.7410  10.7410  10.7410
    10.7410  10.7410  10.7410  10.7410  10.7410  10.7410  10.7410  10.7410
    10.7410  10.7410  10.7410  10.7410  10.7410  10.7410  10.7410  10.7410
    10.7410  10.7410  10.7410  10.7760  10.7760  10.7760  10.7760  10.7760
    10.7760  10.7760  10.7760  10.7760  10.7760  10.7760  10.7760  10.8657
    10.8657  10.8657  10.8657  10.8657  10.8657  10.8657  10.8657  10.8657
    10.8657  10.8657  10.8657  10.9327  10.9327  10.9327  10.9327  10.9327
    10.9327  10.9327  10.9327  10.9327  10.9327  10.9327  10.9327  10.9327
    10.9327  10.9327  10.9327  10.9327  10.9327  10.9327  10.9327  10.9327
    10.9327  10.9327  10.9327  10.9595  10.9595  10.9595  10.9595  10.9595
    10.9595  10.9595  10.9595  10.9595  10.9595  10.9595  10.9595  10.9595
    10.9595  10.9595  10.9595  10.9595  10.9595  10.9595  10.9595  10.9595
    10.9595  10.9595  10.9595  11.1355  11.1355  11.1355  11.1355  11.1355
    11.1355  11.1355  11.1355  11.1355  11.1355  11.1355  11.1355  11.1355
    11.1355  11.1355  11.1355  11.1355  11.1355  11.1355  11.1355  11.1355
    11.1355  11.1355  11.1355  11.2352  11.2352  11.2352  11.2352  11.2352
    11.2352  11.2414  11.2414  11.2414  11.2414  11.2414  11.2414  11.2414
    11.2414  11.2414  11.2414  11.2414  11.2414  11.2414  11.2414  11.2414
    11.2414  11.2414  11.2414  11.2414  11.2414  11.2414  11.2414  11.2414
    11.2414  11.2590  11.2590  11.2590  11.2590  11.2590  11.2590  11.2590
    11.2590  11.2590  11.2590  11.2590  11.2590  11.2590  11.2590  11.2590
    11.2590  11.2590  11.2590  11.2590  11.2590  11.2590  11.2590  11.2590
    11.2590  11.4660  11.4660  11.4660  11.4660  11.4660  11.4660  11.4660
    11.4660  11.4660  11.4660  11.4660  11.4660  11.5508  11.5508  11.5508
    11.5508  11.5508  11.5508  11.6530  11.6530  11.6530  11.6530  11.6530
    11.6530  11.6530  11.6530  11.6530  11.6530  11.6530  11.6530  11.6530
    11.6530  11.6530  11.6530  11.6530  11.6530  11.6530  11.6530  11.6530
    11.6530  11.6530  11.6530  11.8177  11.8177  11.8177  11.8177  11.8177
    11.8177  11.8177  11.8177  11.8177  11.8177  11.8177  11.8177  11.8177
    11.8177  11.8177  11.8177  11.8177  11.8177  11.8177  11.8177  11.8177
    11.8177  11.8177  11.8177  11.8208  11.8208  11.8208  11.8208  11.8208
    11.8208  11.8208  11.8208  11.8208  11.8208  11.8208  11.8208  11.8208
    11.8208  11.8208  11.8208  11.8208  11.8208  11.8208  11.8208  11.8208
    11.8208  11.8208  11.8208  11.8476  11.8476  11.8476  11.8476  11.8476
    11.8476  11.8476  11.8476  11.8476  11.8476  11.8476  11.8476  12.0598
    12.0598  12.0598  12.0598  12.0598  12.0598  12.0598  12.0598  12.0598
    12.0598  12.0598  12.0598  12.0598  12.0598  12.0598  12.0598  12.0598
    12.0598  12.0598  12.0598  12.0598  12.0598  12.0598  12.0598  12.2211
    12.2211  12.2211  12.2211  12.2211  12.2211  12.2211  12.2211  12.2211
    12.2211  12.2211  12.2211  12.2211  12.2211  12.2211  12.2211  12.2211
    12.2211  12.2211  12.2211  12.2211  12.2211  12.2211  12.2211  12.2958
    12.2958  12.2958  12.2958  12.2958  12.2958  12.2958  12.2958  12.2958
    12.2958  12.2958  12.2958  12.3816  12.3816  12.3816  12.3816  12.3816
    12.3816  12.3816  12.3816  12.3816  12.3816  12.3816  12.3816  12.4153
    12.4153  12.4153  12.4153  12.4153  12.4153  12.4153  12.4153  12.4153
    12.4153  12.4153  12.4153  12.4153  12.4153  12.4153  12.4153  12.4153
    12.4153  12.4153  12.4153  12.4153  12.4153  12.4153  12.4153  12.4673
    12.4674  12.4674  12.4674  12.4674  12.4674  12.4674  12.4674  12.4674
    12.4674  12.4674  12.4674  12.5536  12.5536  12.5536  12.5536  12.5536
    12.5536  12.7312  12.7312  12.7312  12.7312  12.7312  12.7312  12.7312
    12.7312  12.7312  12.7312  12.7312  12.7312  12.7312  12.7312  12.7312
    12.7312  12.7312  12.7312  12.7312  12.7312  12.7312  12.7312  12.7312
    12.7312  12.7352  12.7352  12.7352  12.7352  12.7352  12.7352  12.7352
    12.7352  12.7352  12.7352  12.7352  12.7352  12.8761  12.8761  12.8761
    12.8761  12.8761  12.8761  12.8761  12.8761  12.8761  12.8761  12.8761
    12.8761  12.8761  12.8761  12.8761  12.8761  12.8761  12.8761  12.8761
    12.8761  12.8761  12.8761  12.8761  12.8761  12.9514  12.9514  12.9514
    12.9514  12.9514  12.9514  12.9514  12.9514  12.9954  12.9954  12.9954
    12.9954  12.9954  12.9954  12.9954  12.9954  13.0199  13.0199  13.0199
    13.0636  13.0636  13.0636  13.0636  13.0636  13.0636  13.0636  13.0636
    13.0636  13.0636  13.0636  13.0636  13.0636  13.0636  13.0636  13.0636
    13.0636  13.0636  13.0636  13.0636  13.0636  13.0636  13.0636  13.0636
    13.1761  13.1761  13.1761  13.1761  13.1761  13.1761  13.1761  13.1761
    13.1761  13.1761  13.1761  13.1761  13.1761  13.1761  13.1761  13.1761
    13.1761  13.1761  13.1761  13.1761  13.1761  13.1761  13.1761  13.1761
    13.3548  13.3548  13.3548  13.3548  13.3548  13.3548  13.3548  13.3548
    13.3548  13.3548  13.3548  13.3548  13.3548  13.3548  13.3548  13.3548
    13.3548  13.3548  13.3548  13.3548  13.3548  13.3548  13.3548  13.3548
    13.3621  13.3621  13.3621  13.3621  13.3621  13.3621  13.3621  13.3621
    13.3621  13.3621  13.3621  13.3621  13.3621  13.3621  13.3621  13.3621
    13.4235  13.4235  13.4235  13.4235  13.4235  13.4235  13.4235  13.4235
    13.4235  13.4235  13.4235  13.4235  13.4491  13.4491  13.4491  13.4491
    13.4491  13.4491  13.4491  13.4491  13.4491  13.4491  13.4491  13.4491
    13.4798  13.4798  13.4798  13.4798  13.4798  13.4798  13.4798  13.4798
    13.4798  13.4798  13.4798  13.4798  13.4798  13.4798  13.4798  13.4798
    13.4798  13.4798  13.4798  13.4798  13.4798  13.4798  13.4798  13.4798
    13.5582  13.5582  13.5582  13.5582  13.5582  13.5582  13.5582  13.5582
    13.5582  13.5582  13.5582  13.5582  13.5962  13.5962  13.5962  13.5962
    13.5962  13.5962  13.5962  13.5962  13.5962  13.5962  13.5962  13.5962
    13.5962  13.5962  13.5962  13.5962  13.5962  13.5962  13.5962  13.5962
    13.5962  13.5962  13.5962  13.5962  13.6163  13.6163  13.6163  13.6163
    13.6163  13.6163  13.6163  13.6163  13.6163  13.6163  13.6163  13.6163
    13.6163  13.6163  13.6163  13.6163  13.6163  13.6163  13.6163  13.6163
    13.6163  13.6163  13.6163  13.6163  13.8423  13.8423  13.8423  13.8423
    13.8423  13.8423  13.8423  13.8423  13.8423  13.8423  13.8423  13.8423
    13.8423  13.8423  13.8423  13.8423  13.8423  13.8423  13.8423  13.8423
    13.8423  13.8423  13.8423  13.8423  14.0376  14.0376  14.0376  14.0376
    14.0376  14.0376  14.0376  14.0376  14.0376  14.0376  14.0376  14.0376
    14.0376  14.0376  14.0376  14.0376  14.0376  14.0376  14.0376  14.0376
    14.0376  14.0376  14.0376  14.0376  14.0388  14.0388  14.0388  14.0388
    14.0388  14.0388  14.0388  14.0388  14.0388  14.0388  14.0388  14.0388
    14.1382  14.1382  14.1382  14.1382  14.1382  14.1382  14.1382  14.1382
    14.1382  14.1382  14.1382  14.1382  14.2311  14.2311  14.2311  14.2311
    14.2311  14.2311  14.3347  14.3347  14.3347  14.3347  14.3347  14.3347
    14.3347  14.3347  14.3347  14.3347  14.3347  14.3347  14.3347  14.3347
    14.3347  14.3347  14.3347  14.3347  14.3347  14.3347  14.3347  14.3347
    14.3347  14.3347  14.4128  14.4128  14.4128  14.4128  14.4128  14.4128
    14.4128  14.4128  14.4128  14.4128  14.4128  14.4128  14.4682  14.4682
    14.4682  14.4682  14.4682  14.4682  14.4759  14.4760  14.4760  14.4760
    14.4760  14.4760  14.4760  14.4760  14.4760  14.4760  14.4760  14.4760
    14.4760  14.4760  14.4760  14.4760  14.4760  14.4760  14.4760  14.4760
    14.4760  14.4760  14.4760  14.4760  14.5454  14.5454  14.5454  14.5454
    14.5454  14.5454  14.5454  14.5454  14.5454  14.5454  14.5454  14.5454
    14.5454  14.5454  14.5454  14.5454  14.5454  14.5454  14.5454  14.5454
    14.5454  14.5454  14.5454  14.5454  14.5458  14.5458  14.5458  14.5458
    14.5458  14.5458  14.5458  14.5458  14.5458  14.5458  14.5458  14.5458
    14.7234  14.7234  14.7234  14.7234  14.7234  14.7234  14.7234  14.7234
    14.7234  14.7234  14.7234  14.7234  14.7248  14.7248  14.7248  14.7248
    14.7248  14.7248  14.7248  14.7248  14.7248  14.7248  14.7248  14.7248
    14.7248  14.7248  14.7248  14.7248  14.7248  14.7248  14.7248  14.7248
    14.7248  14.7248  14.7248  14.7248  14.7576  14.7576  14.7576  14.7576
    14.7576  14.7576  14.7576  14.7576  14.7576  14.7576  14.7576  14.7576
    14.7576  14.7576  14.7576  14.7576  14.7576  14.7576  14.7576  14.7576
    14.7576  14.7576  14.7576  14.7576  14.8072  14.8072  14.8072  14.8072
    14.8072  14.8072  14.8823  14.8823  14.8823  14.8823  14.8823  14.8823
    14.8823  14.8823  14.8823  14.8823  14.8823  14.8823  14.9376  14.9376
    15.1141  15.1141  15.1141  15.1141  15.1141  15.1141  15.1141  15.1141
    15.1141  15.1141  15.1141  15.1141  15.1141  15.1141  15.1141  15.1141
    15.1292  15.1292  15.1292  15.1292  15.1292  15.1292  15.2498  15.2498
    15.2498  15.2498  15.2498  15.2498  15.2498  15.2498  15.2498  15.2498
    15.2498  15.2498  15.3648  15.3648  15.3648  15.3648  15.3648  15.3648
    15.3648  15.3648  15.3648  15.3648  15.3648  15.3648  15.6109  15.6109
    15.6109  15.6109  15.6109  15.6109  15.6566  15.6566  15.6566  15.6566
    15.6566  15.6566  15.6566  15.6566  15.6567  15.6567  15.6567  15.6567
    15.6567  15.6567  15.6567  15.6567  15.6567  15.6567  15.6567  15.6567
    15.6567  15.6567  15.6567  15.6567  15.6788  15.6789  15.6789  15.6789
    15.6789  15.6789  15.6789  15.6789  15.6789  15.6789  15.6789  15.6789
    15.8192  15.8192  15.8192  15.8192  15.8192  15.8192  15.8192  15.8192
    15.8192  15.8192  15.8192  15.8192  15.8192  15.8192  15.8192  15.8192
    15.8192  15.8192  15.8192  15.8192  15.8192  15.8192  15.8192  15.8192
    15.9840  15.9840  15.9840  15.9840  15.9840  15.9840  15.9840  15.9840
    15.9840  15.9840  15.9840  15.9840  15.9840  15.9840  15.9840  15.9840
    15.9840  15.9840  15.9840  15.9840  15.9840  15.9840  15.9840  15.9840
    15.9863  15.9863  15.9863  15.9863  15.9863  15.9863  15.9863  15.9863
    15.9863  15.9863  15.9863  15.9863  15.9863  15.9863  15.9863  15.9863
    15.9863  15.9863  15.9863  15.9863  15.9863  15.9863  15.9863  15.9863
    15.9955  15.9955  15.9955  15.9955  15.9955  15.9955  15.9955  15.9955
    15.9955  15.9955  15.9955  15.9955  16.1027  16.1027  16.1027  16.1027
    16.1027  16.1027  16.1027  16.1027  16.1027  16.1027  16.1027  16.1027
    16.1027  16.1027  16.1027  16.1027  16.1027  16.1027  16.1027  16.1027
    16.1027  16.1027  16.1027  16.1027  16.1233  16.1233  16.1234  16.1234
    16.1234  16.1234  16.2181  16.2181  16.2181  16.2181  16.2181  16.2181
    16.2181  16.2181  16.2181  16.2181  16.2181  16.2181  16.2185  16.2185
    16.2185  16.2185  16.2185  16.2185  16.2185  16.2185  16.2185  16.2185
    16.2185  16.2185  16.2185  16.2185  16.2185  16.2185  16.2185  16.2185
    16.2185  16.2185  16.2185  16.2185  16.2185  16.2185  16.3458  16.3458
    16.3458  16.3808  16.3808  16.3808  16.3808  16.3808  16.3808  16.3808
    16.3808  16.4902  16.4902  16.4902  16.4902  16.4902  16.4902  16.4902
    16.4902  16.4902  16.4902  16.4902  16.4902  16.4902  16.4902  16.4902
    16.4902  16.4902  16.4902  16.4902  16.4902  16.4902  16.4902  16.4902
    16.4902  16.5513  16.5513  16.5513  16.5513  16.5513  16.5513  16.5513
    16.5513  16.5513  16.5513  16.5513  16.5513  16.5513  16.5513  16.5513
    16.5513  16.5513  16.5513  16.5513  16.5513  16.5513  16.5513  16.5513
    16.5513  16.7058  16.7058  16.7058  16.7058  16.7058  16.7058  16.7058
    16.7058  16.7058  16.7058  16.7058  16.7058  16.7058  16.7058  16.7058
    16.7058  16.7058  16.7058  16.7058  16.7058  16.7058  16.7058  16.7058
    16.7058  16.7645  16.7645  16.7645  16.7645  16.7645  16.7645  16.7658
    16.7658  16.7658  16.7658  16.7658  16.7658  16.7658  16.7658  16.7658
    16.7658  16.7658  16.7658  16.7671  16.7672  16.7672  16.7672  16.7672
    16.7672  17.1009  17.1009  17.1009  17.1009  17.1009  17.1009  17.1841
    17.1841  17.1841  17.1841  18.5663  18.5663  18.5663  18.5663  18.5663
    18.5663  18.5663  18.5663  18.5663  18.5663  18.5663  18.5663  18.5663
    18.5663  18.5663  18.5663  18.5663  18.5663  18.5663  18.5663  18.5663
    18.5663  18.5663  18.5663  19.0067  19.0067  19.0067  19.0067  19.0067
    19.0067  19.0067  19.0067  19.0067  19.0067  19.0067  19.0067  19.4985
    19.4985  19.4985  19.4985  19.4985  19.4985  19.4985  19.4985  19.4985
    19.4985  19.4985  19.4985  19.4985  19.4985  19.4985  19.4985  19.4985
    19.4985  19.4985  19.4985  19.4985  19.4985  19.4985  19.4985  19.7970
    19.7970  19.7970  20.4359  20.4359  20.4359  20.4359  20.4359  20.4359
    20.4359  20.4359  20.4359  20.4359  20.4359  20.4359  20.4359  20.4359
    20.4359  20.4359  20.4359  20.4359  20.4359  20.4359  20.4359  20.4359
    20.4359  20.4359  21.6063  21.6063  21.6063  21.6063  21.6063  21.6063
    21.6063  21.6063  21.6063  21.6063  21.6063  21.6063  21.6063  21.6063
    21.6063  21.6063  21.6063  21.6063  21.6063  21.6063  21.6063  21.6063
    21.6063  21.6063  22.2496  22.2496  22.2496  22.2496  22.2496  22.2496
    22.2496  22.2496  22.2496  22.2496  22.2496  22.2496  22.2496  22.2496
    22.2496  22.2496  22.2496  22.2496  22.2496  22.2496  22.2496  22.2496
    22.2496  22.2496  22.3347  22.3347  22.3347  22.3347  22.3347  22.3347
    22.3347  22.3347  22.3347  22.3347  22.3347  22.3347  24.1042  24.1042
    24.1042  24.1042  24.1042  24.1043  24.6413  24.6413  24.6414  24.6415
    24.6415  24.6415  24.6415  24.6415  24.6417  24.6421  24.6427  24.6428

     the Fermi energy is    16.5250 ev

!    total energy              =  -84758.61736702 Ry
     Harris-Foulkes estimate   =  -84758.61736708 Ry
     estimated scf accuracy    <       0.00000008 Ry

     total all-electron energy =  -2583561.623117 Ry

     The total energy is the sum of the following terms:

     one-electron contribution =    3731.25338113 Ry
     hartree contribution      =    2111.29763667 Ry
     xc contribution           =   -8333.07988935 Ry
     ewald contribution        =  -16539.05088417 Ry
     one-center paw contrib.   =  -65728.76770280 Ry
     smearing contrib. (-TS)   =      -0.26990851 Ry

     convergence has been achieved in  23 iterations

     Forces acting on atoms (Ry/au):

     atom    1 type  1   force =     0.00000000    0.00000000    0.00000000
     atom    2 type  1   force =     0.00000447    0.00000447    0.00000000
     atom    3 type  1   force =     0.00000447    0.00000000    0.00000447
     atom    4 type  1   force =    -0.00000000    0.00000447    0.00000447
     atom    5 type  1   force =     0.00001776    0.00000000   -0.00000000
     atom    6 type  1   force =     0.00001592    0.00000415    0.00000415
     atom    7 type  1   force =     0.00001907    0.00000252   -0.00000000
     atom    8 type  1   force =     0.00001907    0.00000000    0.00000252
     atom    9 type  1   force =     0.00000000    0.00000000    0.00001776
     atom   10 type  1   force =     0.00000415    0.00000415    0.00001592
     atom   11 type  1   force =     0.00000252    0.00000000    0.00001907
     atom   12 type  1   force =     0.00000000    0.00000252    0.00001907
     atom   13 type  1   force =     0.00000000    0.00000000    0.00000000
     atom   14 type  1   force =    -0.00000134   -0.00000134    0.00000000
     atom   15 type  1   force =     0.00000252    0.00000000   -0.00001907
     atom   16 type  1   force =     0.00000000    0.00000252   -0.00001907
     atom   17 type  1   force =     0.00000000    0.00000000   -0.00001776
     atom   18 type  1   force =     0.00000415    0.00000415   -0.00001592
     atom   19 type  1   force =     0.00000447    0.00000000   -0.00000447
     atom   20 type  1   force =     0.00000000    0.00000447   -0.00000447
     atom   21 type  1   force =     0.00000000    0.00001776    0.00000000
     atom   22 type  1   force =     0.00000252    0.00001907   -0.00000000
     atom   23 type  1   force =     0.00000415    0.00001592    0.00000415
     atom   24 type  1   force =    -0.00000000    0.00001907    0.00000252
     atom   25 type  1   force =     0.00000000    0.00001294    0.00001294
     atom   26 type  1   force =    -0.00000310    0.00001156    0.00000182
     atom   27 type  1   force =    -0.00000310    0.00000182    0.00001156
     atom   28 type  1   force =     0.00000000    0.00000036    0.00000036
     atom   29 type  1   force =     0.00000000   -0.00000169    0.00000000
     atom   30 type  1   force =    -0.00000331   -0.00000560    0.00000000
     atom   31 type  1   force =    -0.00000310    0.00000182   -0.00001156
     atom   32 type  1   force =     0.00000000    0.00000036   -0.00000036
     atom   33 type  1   force =     0.00000000    0.00001294   -0.00001294
     atom   34 type  1   force =    -0.00000310    0.00001156   -0.00000182
     atom   35 type  1   force =     0.00000415    0.00001592   -0.00000415
     atom   36 type  1   force =     0.00000000    0.00001907   -0.00000252
     atom   37 type  1   force =     0.00000000    0.00000000    0.00000000
     atom   38 type  1   force =     0.00000252   -0.00001907    0.00000000
     atom   39 type  1   force =    -0.00000134    0.00000000   -0.00000134
     atom   40 type  1   force =    -0.00000000   -0.00001907    0.00000252
     atom   41 type  1   force =     0.00000000   -0.00000000   -0.00000169
     atom   42 type  1   force =    -0.00000310   -0.00001156    0.00000182
     atom   43 type  1   force =    -0.00000331    0.00000000   -0.00000560
     atom   44 type  1   force =     0.00000000   -0.00000036    0.00000036
     atom   45 type  1   force =     0.00000000    0.00000000    0.00000000
     atom   46 type  1   force =    -0.00000331    0.00000560   -0.00000000
     atom   47 type  1   force =    -0.00000331   -0.00000000    0.00000560
     atom   48 type  1   force =     0.00000000   -0.00000036   -0.00000036
     atom   49 type  1   force =     0.00000000    0.00000000    0.00000169
     atom   50 type  1   force =    -0.00000310   -0.00001156   -0.00000182
     atom   51 type  1   force =    -0.00000134    0.00000000    0.00000134
     atom   52 type  1   force =    -0.00000000   -0.00001907   -0.00000252
     atom   53 type  1   force =     0.00000000   -0.00001776    0.00000000
     atom   54 type  1   force =     0.00000447   -0.00000447    0.00000000
     atom   55 type  1   force =     0.00000415   -0.00001592    0.00000415
     atom   56 type  1   force =     0.00000000   -0.00000447    0.00000447
     atom   57 type  1   force =     0.00000000   -0.00001294    0.00001294
     atom   58 type  1   force =     0.00000415   -0.00000415    0.00001592
     atom   59 type  1   force =    -0.00000310   -0.00000182    0.00001156
     atom   60 type  1   force =     0.00000000   -0.00000252    0.00001907
     atom   61 type  1   force =     0.00000000    0.00000169   -0.00000000
     atom   62 type  1   force =    -0.00000134    0.00000134    0.00000000
     atom   63 type  1   force =    -0.00000310   -0.00000182   -0.00001156
     atom   64 type  1   force =     0.00000000   -0.00000252   -0.00001907
     atom   65 type  1   force =     0.00000000   -0.00001294   -0.00001294
     atom   66 type  1   force =     0.00000415   -0.00000415   -0.00001592
     atom   67 type  1   force =     0.00000415   -0.00001592   -0.00000415
     atom   68 type  1   force =     0.00000000   -0.00000447   -0.00000447
     atom   69 type  1   force =     0.00001294    0.00000000    0.00001294
     atom   70 type  1   force =     0.00001156   -0.00000310    0.00000182
     atom   71 type  1   force =     0.00000036    0.00000000    0.00000036
     atom   72 type  1   force =     0.00000182   -0.00000310    0.00001156
     atom   73 type  1   force =    -0.00000169    0.00000000   -0.00000000
     atom   74 type  1   force =    -0.00000560   -0.00000331    0.00000000
     atom   75 type  1   force =     0.00000036    0.00000000   -0.00000036
     atom   76 type  1   force =     0.00000182   -0.00000310   -0.00001156
     atom   77 type  1   force =     0.00001294    0.00000000   -0.00001294
     atom   78 type  1   force =     0.00001156   -0.00000310   -0.00000182
     atom   79 type  1   force =     0.00001907    0.00000000   -0.00000252
     atom   80 type  1   force =     0.00001592    0.00000415   -0.00000415
     atom   81 type  1   force =     0.00001294    0.00001294    0.00000000
     atom   82 type  1   force =     0.00000036    0.00000036   -0.00000000
     atom   83 type  1   force =     0.00001156    0.00000182   -0.00000310
     atom   84 type  1   force =     0.00000182    0.00001156   -0.00000310
     atom   85 type  1   force =     0.00000593    0.00000593    0.00000593
     atom   86 type  1   force =     0.00000316    0.00000316    0.00000412
     atom   87 type  1   force =     0.00000316    0.00000412    0.00000316
     atom   88 type  1   force =     0.00000412    0.00000316    0.00000316
     atom   89 type  1   force =    -0.00000117   -0.00000117    0.00000000
     atom   90 type  1   force =     0.00001024    0.00001024    0.00000000
     atom   91 type  1   force =     0.00000316    0.00000412   -0.00000316
     atom   92 type  1   force =     0.00000412    0.00000316   -0.00000316
     atom   93 type  1   force =     0.00000593    0.00000593   -0.00000593
     atom   94 type  1   force =     0.00000316    0.00000316   -0.00000412
     atom   95 type  1   force =     0.00001156    0.00000182    0.00000310
     atom   96 type  1   force =     0.00000182    0.00001156    0.00000310
     atom   97 type  1   force =    -0.00000169   -0.00000000   -0.00000000
     atom   98 type  1   force =     0.00000036   -0.00000036   -0.00000000
     atom   99 type  1   force =    -0.00000560    0.00000000   -0.00000331
     atom  100 type  1   force =     0.00000182   -0.00001156   -0.00000310
     atom  101 type  1   force =    -0.00000117    0.00000000   -0.00000117
     atom  102 type  1   force =     0.00000316   -0.00000316    0.00000412
     atom  103 type  1   force =     0.00001024    0.00000000    0.00001024
     atom  104 type  1   force =     0.00000412   -0.00000316    0.00000316
     atom  105 type  1   force =     0.00001067    0.00000000   -0.00000000
     atom  106 type  1   force =     0.00001024   -0.00001024   -0.00000000
     atom  107 type  1   force =     0.00001024   -0.00000000   -0.00001024
     atom  108 type  1   force =     0.00000412   -0.00000316   -0.00000316
     atom  109 type  1   force =    -0.00000117    0.00000000    0.00000117
     atom  110 type  1   force =     0.00000316   -0.00000316   -0.00000412
     atom  111 type  1   force =    -0.00000560    0.00000000    0.00000331
     atom  112 type  1   force =     0.00000182   -0.00001156    0.00000310
     atom  113 type  1   force =     0.00001294   -0.00001294   -0.00000000
     atom  114 type  1   force =     0.00001907   -0.00000252   -0.00000000
     atom  115 type  1   force =     0.00001156   -0.00000182   -0.00000310
     atom  116 type  1   force =     0.00001592   -0.00000415    0.00000415
     atom  117 type  1   force =     0.00000593   -0.00000593    0.00000593
     atom  118 type  1   force =     0.00001156    0.00000310    0.00000182
     atom  119 type  1   force =     0.00000316   -0.00000412    0.00000316
     atom  120 type  1   force =     0.00000182    0.00000310    0.00001156
     atom  121 type  1   force =    -0.00000117    0.00000117    0.00000000
     atom  122 type  1   force =    -0.00000560    0.00000331   -0.00000000
     atom  123 type  1   force =     0.00000316   -0.00000412   -0.00000316
     atom  124 type  1   force =     0.00000182    0.00000310   -0.00001156
     atom  125 type  1   force =     0.00000593   -0.00000593   -0.00000593
     atom  126 type  1   force =     0.00001156    0.00000310   -0.00000182
     atom  127 type  1   force =     0.00001156   -0.00000182    0.00000310
     atom  128 type  1   force =     0.00001592   -0.00000415   -0.00000415
     atom  129 type  1   force =     0.00000000    0.00000000    0.00000000
     atom  130 type  1   force =    -0.00001907    0.00000252    0.00000000
     atom  131 type  1   force =    -0.00001907   -0.00000000    0.00000252
     atom  132 type  1   force =     0.00000000   -0.00000134   -0.00000134
     atom  133 type  1   force =     0.00000000    0.00000000   -0.00000169
     atom  134 type  1   force =    -0.00001156   -0.00000310    0.00000182
     atom  135 type  1   force =    -0.00000036    0.00000000    0.00000036
     atom  136 type  1   force =    -0.00000000   -0.00000331   -0.00000560
     atom  137 type  1   force =     0.00000000    0.00000000    0.00000000
     atom  138 type  1   force =     0.00000560   -0.00000331   -0.00000000
     atom  139 type  1   force =    -0.00000036    0.00000000   -0.00000036
     atom  140 type  1   force =    -0.00000000   -0.00000331    0.00000560
     atom  141 type  1   force =     0.00000000    0.00000000    0.00000169
     atom  142 type  1   force =    -0.00001156   -0.00000310   -0.00000182
     atom  143 type  1   force =    -0.00001907   -0.00000000   -0.00000252
     atom  144 type  1   force =    -0.00000000   -0.00000134    0.00000134
     atom  145 type  1   force =     0.00000000   -0.00000169   -0.00000000
     atom  146 type  1   force =    -0.00000036    0.00000036    0.00000000
     atom  147 type  1   force =    -0.00001156    0.00000182   -0.00000310
     atom  148 type  1   force =     0.00000000   -0.00000560   -0.00000331
     atom  149 type  1   force =    -0.00000000   -0.00000117   -0.00000117
     atom  150 type  1   force =    -0.00000316    0.00000316    0.00000412
     atom  151 type  1   force =    -0.00000316    0.00000412    0.00000316
     atom  152 type  1   force =     0.00000000    0.00001024    0.00001024
     atom  153 type  1   force =     0.00000000    0.00001067   -0.00000000
     atom  154 type  1   force =    -0.00001024    0.00001024    0.00000000
     atom  155 type  1   force =    -0.00000316    0.00000412   -0.00000316
     atom  156 type  1   force =     0.00000000    0.00001024   -0.00001024
     atom  157 type  1   force =     0.00000000   -0.00000117    0.00000117
     atom  158 type  1   force =    -0.00000316    0.00000316   -0.00000412
     atom  159 type  1   force =    -0.00001156    0.00000182    0.00000310
     atom  160 type  1   force =     0.00000000   -0.00000560    0.00000331
     atom  161 type  1   force =     0.00000000    0.00000000    0.00000000
     atom  162 type  1   force =    -0.00000036   -0.00000036   -0.00000000
     atom  163 type  1   force =     0.00000560    0.00000000   -0.00000331
     atom  164 type  1   force =    -0.00000000    0.00000560   -0.00000331
     atom  165 type  1   force =     0.00000000    0.00000000    0.00001067
     atom  166 type  1   force =    -0.00000316   -0.00000316    0.00000412
     atom  167 type  1   force =    -0.00001024    0.00000000    0.00001024
     atom  168 type  1   force =     0.00000000   -0.00001024    0.00001024
     atom  169 type  1   force =     0.00000000    0.00000000    0.00000000
     atom  170 type  1   force =    -0.00001024   -0.00001024    0.00000000
     atom  171 type  1   force =    -0.00001024   -0.00000000   -0.00001024
     atom  172 type  1   force =     0.00000000   -0.00001024   -0.00001024
     atom  173 type  1   force =     0.00000000   -0.00000000   -0.00001067
     atom  174 type  1   force =    -0.00000316   -0.00000316   -0.00000412
     atom  175 type  1   force =     0.00000560    0.00000000    0.00000331
     atom  176 type  1   force =    -0.00000000    0.00000560    0.00000331
     atom  177 type  1   force =     0.00000000    0.00000169    0.00000000
     atom  178 type  1   force =    -0.00001907   -0.00000252    0.00000000
     atom  179 type  1   force =    -0.00001156   -0.00000182   -0.00000310
     atom  180 type  1   force =     0.00000000    0.00000134   -0.00000134
     atom  181 type  1   force =     0.00000000    0.00000117   -0.00000117
     atom  182 type  1   force =    -0.00001156    0.00000310    0.00000182
     atom  183 type  1   force =    -0.00000316   -0.00000412    0.00000316
     atom  184 type  1   force =     0.00000000    0.00000331   -0.00000560
     atom  185 type  1   force =     0.00000000   -0.00001067    0.00000000
     atom  186 type  1   force =     0.00000560    0.00000331    0.00000000
     atom  187 type  1   force =    -0.00000316   -0.00000412   -0.00000316
     atom  188 type  1   force =     0.00000000    0.00000331    0.00000560
     atom  189 type  1   force =     0.00000000    0.00000117    0.00000117
     atom  190 type  1   force =    -0.00001156    0.00000310   -0.00000182
     atom  191 type  1   force =    -0.00001156   -0.00000182    0.00000310
     atom  192 type  1   force =     0.00000000    0.00000134    0.00000134
     atom  193 type  1   force =    -0.00001776   -0.00000000    0.00000000
     atom  194 type  1   force =    -0.00000447    0.00000447    0.00000000
     atom  195 type  1   force =    -0.00000447   -0.00000000    0.00000447
     atom  196 type  1   force =    -0.00001592    0.00000415    0.00000415
     atom  197 type  1   force =    -0.00001294   -0.00000000    0.00001294
     atom  198 type  1   force =    -0.00000415    0.00000415    0.00001592
     atom  199 type  1   force =    -0.00000252    0.00000000    0.00001907
     atom  200 type  1   force =    -0.00000182   -0.00000310    0.00001156
     atom  201 type  1   force =     0.00000169    0.00000000    0.00000000
     atom  202 type  1   force =     0.00000134   -0.00000134    0.00000000
     atom  203 type  1   force =    -0.00000252    0.00000000   -0.00001907
     atom  204 type  1   force =    -0.00000182   -0.00000310   -0.00001156
     atom  205 type  1   force =    -0.00001294    0.00000000   -0.00001294
     atom  206 type  1   force =    -0.00000415    0.00000415   -0.00001592
     atom  207 type  1   force =    -0.00000447   -0.00000000   -0.00000447
     atom  208 type  1   force =    -0.00001592    0.00000415   -0.00000415
     atom  209 type  1   force =    -0.00001294    0.00001294   -0.00000000
     atom  210 type  1   force =    -0.00000252    0.00001907   -0.00000000
     atom  211 type  1   force =    -0.00000415    0.00001592    0.00000415
     atom  212 type  1   force =    -0.00000182    0.00001156   -0.00000310
     atom  213 type  1   force =    -0.00000593    0.00000593    0.00000593
     atom  214 type  1   force =     0.00000310    0.00001156    0.00000182
     atom  215 type  1   force =     0.00000310    0.00000182    0.00001156
     atom  216 type  1   force =    -0.00000412    0.00000316    0.00000316
     atom  217 type  1   force =     0.00000117   -0.00000117    0.00000000
     atom  218 type  1   force =     0.00000331   -0.00000560   -0.00000000
     atom  219 type  1   force =     0.00000310    0.00000182   -0.00001156
     atom  220 type  1   force =    -0.00000412    0.00000316   -0.00000316
     atom  221 type  1   force =    -0.00000593    0.00000593   -0.00000593
     atom  222 type  1   force =     0.00000310    0.00001156   -0.00000182
     atom  223 type  1   force =    -0.00000415    0.00001592   -0.00000415
     atom  224 type  1   force =    -0.00000182    0.00001156    0.00000310
     atom  225 type  1   force =     0.00000169    0.00000000    0.00000000
     atom  226 type  1   force =    -0.00000252   -0.00001907    0.00000000
     atom  227 type  1   force =     0.00000134   -0.00000000   -0.00000134
     atom  228 type  1   force =    -0.00000182   -0.00001156   -0.00000310
     atom  229 type  1   force =     0.00000117    0.00000000   -0.00000117
     atom  230 type  1   force =     0.00000310   -0.00001156    0.00000182
     atom  231 type  1   force =     0.00000331   -0.00000000   -0.00000560
     atom  232 type  1   force =    -0.00000412   -0.00000316    0.00000316
     atom  233 type  1   force =    -0.00001067   -0.00000000    0.00000000
     atom  234 type  1   force =     0.00000331    0.00000560   -0.00000000
     atom  235 type  1   force =     0.00000331    0.00000000    0.00000560
     atom  236 type  1   force =    -0.00000412   -0.00000316   -0.00000316
     atom  237 type  1   force =     0.00000117   -0.00000000    0.00000117
     atom  238 type  1   force =     0.00000310   -0.00001156   -0.00000182
     atom  239 type  1   force =     0.00000134    0.00000000    0.00000134
     atom  240 type  1   force =    -0.00000182   -0.00001156    0.00000310
     atom  241 type  1   force =    -0.00001294   -0.00001294   -0.00000000
     atom  242 type  1   force =    -0.00000447   -0.00000447   -0.00000000
     atom  243 type  1   force =    -0.00000415   -0.00001592    0.00000415
     atom  244 type  1   force =    -0.00001592   -0.00000415    0.00000415
     atom  245 type  1   force =    -0.00000593   -0.00000593    0.00000593
     atom  246 type  1   force =    -0.00000415   -0.00000415    0.00001592
     atom  247 type  1   force =     0.00000310   -0.00000182    0.00001156
     atom  248 type  1   force =    -0.00000182    0.00000310    0.00001156
     atom  249 type  1   force =     0.00000117    0.00000117   -0.00000000
     atom  250 type  1   force =     0.00000134    0.00000134   -0.00000000
     atom  251 type  1   force =     0.00000310   -0.00000182   -0.00001156
     atom  252 type  1   force =    -0.00000182    0.00000310   -0.00001156
     atom  253 type  1   force =    -0.00000593   -0.00000593   -0.00000593
     atom  254 type  1   force =    -0.00000415   -0.00000415   -0.00001592
     atom  255 type  1   force =    -0.00000415   -0.00001592   -0.00000415
     atom  256 type  1   force =    -0.00001592   -0.00000415   -0.00000415

     Total force =     0.000188     Total SCF correction =     0.001361
     SCF correction compared to forces is large: reduce conv_thr to get better values


     entering subroutine stress ...

          total   stress  (Ry/bohr**3)                   (kbar)     P=  400.25
   0.00272082   0.00000000   0.00000000        400.25      0.00      0.00
   0.00000000   0.00272082   0.00000000          0.00    400.25      0.00
   0.00000000   0.00000000   0.00272082          0.00      0.00    400.25


     Writing output data file 4e9d5cbe3278e_5ed5.save

     init_run     :     45.19s CPU     30.62s WALL (       1 calls)
     electrons    :   2205.69s CPU   1555.88s WALL (       1 calls)
     forces       :     36.35s CPU     27.25s WALL (       1 calls)
     stress       :    171.39s CPU    155.27s WALL (       1 calls)

     Called by init_run:
     wfcinit      :     39.08s CPU     26.62s WALL (       1 calls)
     potinit      :      1.38s CPU      0.98s WALL (       1 calls)

     Called by electrons:
     c_bands      :   1767.46s CPU   1265.88s WALL (      23 calls)
     sum_band     :    308.43s CPU    204.28s WALL (      23 calls)
     v_of_rho     :      3.57s CPU      3.11s WALL (      24 calls)
     newd         :     90.38s CPU     46.05s WALL (      24 calls)
     mix_rho      :      7.96s CPU      7.97s WALL (      23 calls)

     Called by c_bands:
     init_us_2    :      1.91s CPU      2.14s WALL (      47 calls)
     regterg      :   1760.33s CPU   1256.30s WALL (      23 calls)

     Called by *egterg:
     h_psi        :    833.61s CPU    587.25s WALL (      75 calls)
     s_psi        :    207.44s CPU    116.31s WALL (      75 calls)
     g_psi        :      0.42s CPU      0.43s WALL (      51 calls)
     rdiaghg      :    372.59s CPU    343.65s WALL (      74 calls)

     Called by h_psi:
     add_vuspsi   :    205.44s CPU    117.32s WALL (      75 calls)

     General routines
     calbec       :    334.89s CPU    190.61s WALL (     103 calls)
     fft          :      7.29s CPU      6.87s WALL (     336 calls)
     fftw         :    487.73s CPU    417.86s WALL (   96074 calls)
     davcio       :      0.00s CPU      0.05s WALL (       1 calls)

     Parallel routines
     fft_scatter  :    422.81s CPU    338.81s WALL (   96410 calls)

     PAW routines
     PAW_pot      :     27.63s CPU     17.63s WALL (      24 calls)
     PAW_ddot     :      7.59s CPU      7.56s WALL (     751 calls)
     PAW_symme    :      0.33s CPU      0.30s WALL (      47 calls)

     PWSCF        : 40m59.88s CPU    29m31.19s WALL


   This run was terminated on:   0:27:35  29Oct2013            

=------------------------------------------------------------------------------=
   JOB DONE.
=------------------------------------------------------------------------------=
Application 6127227 resources: utime ~310296s, stime ~9731s
