
     Program PWSCF v.5.0.2 (svn rev. 9656) starts on 14Jul2014 at 14:25:25 

     This program is part of the open-source Quantum ESPRESSO suite
     for quantum simulation of materials; please cite
         "P. Giannozzi et al., J. Phys.:Condens. Matter 21 395502 (2009);
          URL http://www.quantum-espresso.org", 
     in publications or presentations arising from this work. More details at
     http://www.quantum-espresso.org/quote.php

     Parallel version (MPI & OpenMP), running on     264 processor cores
     Number of MPI processes:               264
     Threads/MPI process:                     1
     R & G space division:  proc/nbgrp/npool/nimage =     264

     Current dimensions of program PWSCF are:
     Max number of different atomic species (ntypx) = 10
     Max number of k-points (npk) =  40000
     Max angular momentum in pseudopotentials (lmaxx) =  3
     Waiting for input...
     Reading input from standard input
Warning: card &IONS ignored
Warning: card ION_DYNAMICS='BFGS', ignored
Warning: card / ignored
Warning: card &CELL ignored
Warning: card CELL_DYNAMICS='BFGS', ignored
Warning: card PRESS = 0.0, ignored
Warning: card CELL_FACTOR = 2.0, ignored
Warning: card / ignored
               file Pd.pbe-spn-kjpaw_psl.1.0.0.UPF: wavefunction(s)  4S 5S 4D renormalized

     Subspace diagonalization in iterative solution of the eigenvalue problem:
     scalapack distributed-memory algorithm (size of sub-group: 11* 11 procs)

     Found symmetry operation: I + (  0.1250  0.1250  0.0000)
     This is a supercell, fractional translations are disabled
 
     Parallelization info
     --------------------
     sticks:   dense  smooth     PW     G-vecs:    dense   smooth      PW
     Min          78      78     32                 8452     8452    2244
     Max          80      80     33                 8458     8458    2253
     Sum       20673   20673   8529              2231883  2231883  593425
 


     bravais-lattice index     =           14
     lattice parameter (alat)  =      29.4040  a.u.
     unit-cell volume          =   25422.5577 (a.u.)^3
     number of atoms/cell      =          256
     number of atomic types    =            1
     number of electrons       =      4608.00
     number of Kohn-Sham states=         3226
     kinetic-energy cutoff     =     120.0000  Ry
     charge density cutoff     =     300.0000  Ry
     convergence threshold     =      1.0E-07
     mixing beta               =       0.7000
     number of iterations used =            8  TF        mixing
     Exchange-correlation      =  SLA  PW   PBX  PBC ( 1 4 3 4 0)
     EXX-fraction              =        0.00

     celldm(1)=  29.404000  celldm(2)=   1.000000  celldm(3)=   1.000000
     celldm(4)=   0.000000  celldm(5)=   0.000000  celldm(6)=   0.000000

     crystal axes: (cart. coord. in units of alat)
               a(1) = (   1.000000   0.000000   0.000000 )  
               a(2) = (   0.000000   1.000000   0.000000 )  
               a(3) = (   0.000000   0.000000   1.000000 )  

     reciprocal axes: (cart. coord. in units 2 pi/alat)
               b(1) = (  1.000000  0.000000  0.000000 )  
               b(2) = (  0.000000  1.000000  0.000000 )  
               b(3) = (  0.000000  0.000000  1.000000 )  


     PseudoPot. # 1 for Pd read from file:
     /work/e337/e337/benp/pseudopotentials/Pd.pbe-spn-kjpaw_psl.1.0.0.UPF
     MD5 check sum: b3359a045cb2e9ccc68ee3e793f79c75
     Pseudo is Projector augmented-wave + core cor, Zval = 18.0
     Generated using "atomic" code by A. Dal Corso  v.5.1
     Shape of augmentation charge: PSQ
     Using radial grid of 1235 points,  6 beta functions with: 
                l(1) =   0
                l(2) =   0
                l(3) =   1
                l(4) =   1
                l(5) =   2
                l(6) =   2
     Q(r) pseudized with 0 coefficients 


     atomic species   valence    mass     pseudopotential
        N             18.00   106.42000     Pd( 1.00)

     48 Sym. Ops., with inversion, found



   Cartesian axes

     site n.     atom                  positions (alat units)
         1           N   tau(   1) = (   0.0000000   0.0000000   0.0000000  )
         2           N   tau(   2) = (   0.1250000   0.1250000   0.0000000  )
         3           N   tau(   3) = (   0.1250000   0.0000000   0.1250000  )
         4           N   tau(   4) = (   0.0000000   0.1250000   0.1250000  )
         5           N   tau(   5) = (   0.2500000   0.0000000   0.0000000  )
         6           N   tau(   6) = (   0.2500000   0.1250000   0.1250000  )
         7           N   tau(   7) = (   0.3750000   0.1250000   0.0000000  )
         8           N   tau(   8) = (   0.3750000   0.0000000   0.1250000  )
         9           N   tau(   9) = (   0.0000000   0.0000000   0.2500000  )
        10           N   tau(  10) = (   0.1250000   0.1250000   0.2500000  )
        11           N   tau(  11) = (   0.1250000   0.0000000   0.3750000  )
        12           N   tau(  12) = (   0.0000000   0.1250000   0.3750000  )
        13           N   tau(  13) = (   0.0000000   0.0000000   0.5000000  )
        14           N   tau(  14) = (   0.1250000   0.1250000   0.5000000  )
        15           N   tau(  15) = (   0.1250000   0.0000000   0.6250000  )
        16           N   tau(  16) = (   0.0000000   0.1250000   0.6250000  )
        17           N   tau(  17) = (   0.0000000   0.0000000   0.7500000  )
        18           N   tau(  18) = (   0.1250000   0.1250000   0.7500000  )
        19           N   tau(  19) = (   0.1250000   0.0000000   0.8750000  )
        20           N   tau(  20) = (   0.0000000   0.1250000   0.8750000  )
        21           N   tau(  21) = (   0.0000000   0.2500000   0.0000000  )
        22           N   tau(  22) = (   0.1250000   0.3750000   0.0000000  )
        23           N   tau(  23) = (   0.1250000   0.2500000   0.1250000  )
        24           N   tau(  24) = (   0.0000000   0.3750000   0.1250000  )
        25           N   tau(  25) = (   0.0000000   0.2500000   0.2500000  )
        26           N   tau(  26) = (   0.1250000   0.3750000   0.2500000  )
        27           N   tau(  27) = (   0.1250000   0.2500000   0.3750000  )
        28           N   tau(  28) = (   0.0000000   0.3750000   0.3750000  )
        29           N   tau(  29) = (   0.0000000   0.2500000   0.5000000  )
        30           N   tau(  30) = (   0.1250000   0.3750000   0.5000000  )
        31           N   tau(  31) = (   0.1250000   0.2500000   0.6250000  )
        32           N   tau(  32) = (   0.0000000   0.3750000   0.6250000  )
        33           N   tau(  33) = (   0.0000000   0.2500000   0.7500000  )
        34           N   tau(  34) = (   0.1250000   0.3750000   0.7500000  )
        35           N   tau(  35) = (   0.1250000   0.2500000   0.8750000  )
        36           N   tau(  36) = (   0.0000000   0.3750000   0.8750000  )
        37           N   tau(  37) = (   0.0000000   0.5000000   0.0000000  )
        38           N   tau(  38) = (   0.1250000   0.6250000   0.0000000  )
        39           N   tau(  39) = (   0.1250000   0.5000000   0.1250000  )
        40           N   tau(  40) = (   0.0000000   0.6250000   0.1250000  )
        41           N   tau(  41) = (   0.0000000   0.5000000   0.2500000  )
        42           N   tau(  42) = (   0.1250000   0.6250000   0.2500000  )
        43           N   tau(  43) = (   0.1250000   0.5000000   0.3750000  )
        44           N   tau(  44) = (   0.0000000   0.6250000   0.3750000  )
        45           N   tau(  45) = (   0.0000000   0.5000000   0.5000000  )
        46           N   tau(  46) = (   0.1250000   0.6250000   0.5000000  )
        47           N   tau(  47) = (   0.1250000   0.5000000   0.6250000  )
        48           N   tau(  48) = (   0.0000000   0.6250000   0.6250000  )
        49           N   tau(  49) = (   0.0000000   0.5000000   0.7500000  )
        50           N   tau(  50) = (   0.1250000   0.6250000   0.7500000  )
        51           N   tau(  51) = (   0.1250000   0.5000000   0.8750000  )
        52           N   tau(  52) = (   0.0000000   0.6250000   0.8750000  )
        53           N   tau(  53) = (   0.0000000   0.7500000   0.0000000  )
        54           N   tau(  54) = (   0.1250000   0.8750000   0.0000000  )
        55           N   tau(  55) = (   0.1250000   0.7500000   0.1250000  )
        56           N   tau(  56) = (   0.0000000   0.8750000   0.1250000  )
        57           N   tau(  57) = (   0.0000000   0.7500000   0.2500000  )
        58           N   tau(  58) = (   0.1250000   0.8750000   0.2500000  )
        59           N   tau(  59) = (   0.1250000   0.7500000   0.3750000  )
        60           N   tau(  60) = (   0.0000000   0.8750000   0.3750000  )
        61           N   tau(  61) = (   0.0000000   0.7500000   0.5000000  )
        62           N   tau(  62) = (   0.1250000   0.8750000   0.5000000  )
        63           N   tau(  63) = (   0.1250000   0.7500000   0.6250000  )
        64           N   tau(  64) = (   0.0000000   0.8750000   0.6250000  )
        65           N   tau(  65) = (   0.0000000   0.7500000   0.7500000  )
        66           N   tau(  66) = (   0.1250000   0.8750000   0.7500000  )
        67           N   tau(  67) = (   0.1250000   0.7500000   0.8750000  )
        68           N   tau(  68) = (   0.0000000   0.8750000   0.8750000  )
        69           N   tau(  69) = (   0.2500000   0.0000000   0.2500000  )
        70           N   tau(  70) = (   0.3750000   0.1250000   0.2500000  )
        71           N   tau(  71) = (   0.3750000   0.0000000   0.3750000  )
        72           N   tau(  72) = (   0.2500000   0.1250000   0.3750000  )
        73           N   tau(  73) = (   0.2500000   0.0000000   0.5000000  )
        74           N   tau(  74) = (   0.3750000   0.1250000   0.5000000  )
        75           N   tau(  75) = (   0.3750000   0.0000000   0.6250000  )
        76           N   tau(  76) = (   0.2500000   0.1250000   0.6250000  )
        77           N   tau(  77) = (   0.2500000   0.0000000   0.7500000  )
        78           N   tau(  78) = (   0.3750000   0.1250000   0.7500000  )
        79           N   tau(  79) = (   0.3750000   0.0000000   0.8750000  )
        80           N   tau(  80) = (   0.2500000   0.1250000   0.8750000  )
        81           N   tau(  81) = (   0.2500000   0.2500000   0.0000000  )
        82           N   tau(  82) = (   0.3750000   0.3750000   0.0000000  )
        83           N   tau(  83) = (   0.3750000   0.2500000   0.1250000  )
        84           N   tau(  84) = (   0.2500000   0.3750000   0.1250000  )
        85           N   tau(  85) = (   0.2500000   0.2500000   0.2500000  )
        86           N   tau(  86) = (   0.3750000   0.3750000   0.2500000  )
        87           N   tau(  87) = (   0.3750000   0.2500000   0.3750000  )
        88           N   tau(  88) = (   0.2500000   0.3750000   0.3750000  )
        89           N   tau(  89) = (   0.2500000   0.2500000   0.5000000  )
        90           N   tau(  90) = (   0.3750000   0.3750000   0.5000000  )
        91           N   tau(  91) = (   0.3750000   0.2500000   0.6250000  )
        92           N   tau(  92) = (   0.2500000   0.3750000   0.6250000  )
        93           N   tau(  93) = (   0.2500000   0.2500000   0.7500000  )
        94           N   tau(  94) = (   0.3750000   0.3750000   0.7500000  )
        95           N   tau(  95) = (   0.3750000   0.2500000   0.8750000  )
        96           N   tau(  96) = (   0.2500000   0.3750000   0.8750000  )
        97           N   tau(  97) = (   0.2500000   0.5000000   0.0000000  )
        98           N   tau(  98) = (   0.3750000   0.6250000   0.0000000  )
        99           N   tau(  99) = (   0.3750000   0.5000000   0.1250000  )
       100           N   tau( 100) = (   0.2500000   0.6250000   0.1250000  )
       101           N   tau( 101) = (   0.2500000   0.5000000   0.2500000  )
       102           N   tau( 102) = (   0.3750000   0.6250000   0.2500000  )
       103           N   tau( 103) = (   0.3750000   0.5000000   0.3750000  )
       104           N   tau( 104) = (   0.2500000   0.6250000   0.3750000  )
       105           N   tau( 105) = (   0.2500000   0.5000000   0.5000000  )
       106           N   tau( 106) = (   0.3750000   0.6250000   0.5000000  )
       107           N   tau( 107) = (   0.3750000   0.5000000   0.6250000  )
       108           N   tau( 108) = (   0.2500000   0.6250000   0.6250000  )
       109           N   tau( 109) = (   0.2500000   0.5000000   0.7500000  )
       110           N   tau( 110) = (   0.3750000   0.6250000   0.7500000  )
       111           N   tau( 111) = (   0.3750000   0.5000000   0.8750000  )
       112           N   tau( 112) = (   0.2500000   0.6250000   0.8750000  )
       113           N   tau( 113) = (   0.2500000   0.7500000   0.0000000  )
       114           N   tau( 114) = (   0.3750000   0.8750000   0.0000000  )
       115           N   tau( 115) = (   0.3750000   0.7500000   0.1250000  )
       116           N   tau( 116) = (   0.2500000   0.8750000   0.1250000  )
       117           N   tau( 117) = (   0.2500000   0.7500000   0.2500000  )
       118           N   tau( 118) = (   0.3750000   0.8750000   0.2500000  )
       119           N   tau( 119) = (   0.3750000   0.7500000   0.3750000  )
       120           N   tau( 120) = (   0.2500000   0.8750000   0.3750000  )
       121           N   tau( 121) = (   0.2500000   0.7500000   0.5000000  )
       122           N   tau( 122) = (   0.3750000   0.8750000   0.5000000  )
       123           N   tau( 123) = (   0.3750000   0.7500000   0.6250000  )
       124           N   tau( 124) = (   0.2500000   0.8750000   0.6250000  )
       125           N   tau( 125) = (   0.2500000   0.7500000   0.7500000  )
       126           N   tau( 126) = (   0.3750000   0.8750000   0.7500000  )
       127           N   tau( 127) = (   0.3750000   0.7500000   0.8750000  )
       128           N   tau( 128) = (   0.2500000   0.8750000   0.8750000  )
       129           N   tau( 129) = (   0.5000000   0.0000000   0.0000000  )
       130           N   tau( 130) = (   0.6250000   0.1250000   0.0000000  )
       131           N   tau( 131) = (   0.6250000   0.0000000   0.1250000  )
       132           N   tau( 132) = (   0.5000000   0.1250000   0.1250000  )
       133           N   tau( 133) = (   0.5000000   0.0000000   0.2500000  )
       134           N   tau( 134) = (   0.6250000   0.1250000   0.2500000  )
       135           N   tau( 135) = (   0.6250000   0.0000000   0.3750000  )
       136           N   tau( 136) = (   0.5000000   0.1250000   0.3750000  )
       137           N   tau( 137) = (   0.5000000   0.0000000   0.5000000  )
       138           N   tau( 138) = (   0.6250000   0.1250000   0.5000000  )
       139           N   tau( 139) = (   0.6250000   0.0000000   0.6250000  )
       140           N   tau( 140) = (   0.5000000   0.1250000   0.6250000  )
       141           N   tau( 141) = (   0.5000000   0.0000000   0.7500000  )
       142           N   tau( 142) = (   0.6250000   0.1250000   0.7500000  )
       143           N   tau( 143) = (   0.6250000   0.0000000   0.8750000  )
       144           N   tau( 144) = (   0.5000000   0.1250000   0.8750000  )
       145           N   tau( 145) = (   0.5000000   0.2500000   0.0000000  )
       146           N   tau( 146) = (   0.6250000   0.3750000   0.0000000  )
       147           N   tau( 147) = (   0.6250000   0.2500000   0.1250000  )
       148           N   tau( 148) = (   0.5000000   0.3750000   0.1250000  )
       149           N   tau( 149) = (   0.5000000   0.2500000   0.2500000  )
       150           N   tau( 150) = (   0.6250000   0.3750000   0.2500000  )
       151           N   tau( 151) = (   0.6250000   0.2500000   0.3750000  )
       152           N   tau( 152) = (   0.5000000   0.3750000   0.3750000  )
       153           N   tau( 153) = (   0.5000000   0.2500000   0.5000000  )
       154           N   tau( 154) = (   0.6250000   0.3750000   0.5000000  )
       155           N   tau( 155) = (   0.6250000   0.2500000   0.6250000  )
       156           N   tau( 156) = (   0.5000000   0.3750000   0.6250000  )
       157           N   tau( 157) = (   0.5000000   0.2500000   0.7500000  )
       158           N   tau( 158) = (   0.6250000   0.3750000   0.7500000  )
       159           N   tau( 159) = (   0.6250000   0.2500000   0.8750000  )
       160           N   tau( 160) = (   0.5000000   0.3750000   0.8750000  )
       161           N   tau( 161) = (   0.5000000   0.5000000   0.0000000  )
       162           N   tau( 162) = (   0.6250000   0.6250000   0.0000000  )
       163           N   tau( 163) = (   0.6250000   0.5000000   0.1250000  )
       164           N   tau( 164) = (   0.5000000   0.6250000   0.1250000  )
       165           N   tau( 165) = (   0.5000000   0.5000000   0.2500000  )
       166           N   tau( 166) = (   0.6250000   0.6250000   0.2500000  )
       167           N   tau( 167) = (   0.6250000   0.5000000   0.3750000  )
       168           N   tau( 168) = (   0.5000000   0.6250000   0.3750000  )
       169           N   tau( 169) = (   0.5000000   0.5000000   0.5000000  )
       170           N   tau( 170) = (   0.6250000   0.6250000   0.5000000  )
       171           N   tau( 171) = (   0.6250000   0.5000000   0.6250000  )
       172           N   tau( 172) = (   0.5000000   0.6250000   0.6250000  )
       173           N   tau( 173) = (   0.5000000   0.5000000   0.7500000  )
       174           N   tau( 174) = (   0.6250000   0.6250000   0.7500000  )
       175           N   tau( 175) = (   0.6250000   0.5000000   0.8750000  )
       176           N   tau( 176) = (   0.5000000   0.6250000   0.8750000  )
       177           N   tau( 177) = (   0.5000000   0.7500000   0.0000000  )
       178           N   tau( 178) = (   0.6250000   0.8750000   0.0000000  )
       179           N   tau( 179) = (   0.6250000   0.7500000   0.1250000  )
       180           N   tau( 180) = (   0.5000000   0.8750000   0.1250000  )
       181           N   tau( 181) = (   0.5000000   0.7500000   0.2500000  )
       182           N   tau( 182) = (   0.6250000   0.8750000   0.2500000  )
       183           N   tau( 183) = (   0.6250000   0.7500000   0.3750000  )
       184           N   tau( 184) = (   0.5000000   0.8750000   0.3750000  )
       185           N   tau( 185) = (   0.5000000   0.7500000   0.5000000  )
       186           N   tau( 186) = (   0.6250000   0.8750000   0.5000000  )
       187           N   tau( 187) = (   0.6250000   0.7500000   0.6250000  )
       188           N   tau( 188) = (   0.5000000   0.8750000   0.6250000  )
       189           N   tau( 189) = (   0.5000000   0.7500000   0.7500000  )
       190           N   tau( 190) = (   0.6250000   0.8750000   0.7500000  )
       191           N   tau( 191) = (   0.6250000   0.7500000   0.8750000  )
       192           N   tau( 192) = (   0.5000000   0.8750000   0.8750000  )
       193           N   tau( 193) = (   0.7500000   0.0000000   0.0000000  )
       194           N   tau( 194) = (   0.8750000   0.1250000   0.0000000  )
       195           N   tau( 195) = (   0.8750000   0.0000000   0.1250000  )
       196           N   tau( 196) = (   0.7500000   0.1250000   0.1250000  )
       197           N   tau( 197) = (   0.7500000   0.0000000   0.2500000  )
       198           N   tau( 198) = (   0.8750000   0.1250000   0.2500000  )
       199           N   tau( 199) = (   0.8750000   0.0000000   0.3750000  )
       200           N   tau( 200) = (   0.7500000   0.1250000   0.3750000  )
       201           N   tau( 201) = (   0.7500000   0.0000000   0.5000000  )
       202           N   tau( 202) = (   0.8750000   0.1250000   0.5000000  )
       203           N   tau( 203) = (   0.8750000   0.0000000   0.6250000  )
       204           N   tau( 204) = (   0.7500000   0.1250000   0.6250000  )
       205           N   tau( 205) = (   0.7500000   0.0000000   0.7500000  )
       206           N   tau( 206) = (   0.8750000   0.1250000   0.7500000  )
       207           N   tau( 207) = (   0.8750000   0.0000000   0.8750000  )
       208           N   tau( 208) = (   0.7500000   0.1250000   0.8750000  )
       209           N   tau( 209) = (   0.7500000   0.2500000   0.0000000  )
       210           N   tau( 210) = (   0.8750000   0.3750000   0.0000000  )
       211           N   tau( 211) = (   0.8750000   0.2500000   0.1250000  )
       212           N   tau( 212) = (   0.7500000   0.3750000   0.1250000  )
       213           N   tau( 213) = (   0.7500000   0.2500000   0.2500000  )
       214           N   tau( 214) = (   0.8750000   0.3750000   0.2500000  )
       215           N   tau( 215) = (   0.8750000   0.2500000   0.3750000  )
       216           N   tau( 216) = (   0.7500000   0.3750000   0.3750000  )
       217           N   tau( 217) = (   0.7500000   0.2500000   0.5000000  )
       218           N   tau( 218) = (   0.8750000   0.3750000   0.5000000  )
       219           N   tau( 219) = (   0.8750000   0.2500000   0.6250000  )
       220           N   tau( 220) = (   0.7500000   0.3750000   0.6250000  )
       221           N   tau( 221) = (   0.7500000   0.2500000   0.7500000  )
       222           N   tau( 222) = (   0.8750000   0.3750000   0.7500000  )
       223           N   tau( 223) = (   0.8750000   0.2500000   0.8750000  )
       224           N   tau( 224) = (   0.7500000   0.3750000   0.8750000  )
       225           N   tau( 225) = (   0.7500000   0.5000000   0.0000000  )
       226           N   tau( 226) = (   0.8750000   0.6250000   0.0000000  )
       227           N   tau( 227) = (   0.8750000   0.5000000   0.1250000  )
       228           N   tau( 228) = (   0.7500000   0.6250000   0.1250000  )
       229           N   tau( 229) = (   0.7500000   0.5000000   0.2500000  )
       230           N   tau( 230) = (   0.8750000   0.6250000   0.2500000  )
       231           N   tau( 231) = (   0.8750000   0.5000000   0.3750000  )
       232           N   tau( 232) = (   0.7500000   0.6250000   0.3750000  )
       233           N   tau( 233) = (   0.7500000   0.5000000   0.5000000  )
       234           N   tau( 234) = (   0.8750000   0.6250000   0.5000000  )
       235           N   tau( 235) = (   0.8750000   0.5000000   0.6250000  )
       236           N   tau( 236) = (   0.7500000   0.6250000   0.6250000  )
       237           N   tau( 237) = (   0.7500000   0.5000000   0.7500000  )
       238           N   tau( 238) = (   0.8750000   0.6250000   0.7500000  )
       239           N   tau( 239) = (   0.8750000   0.5000000   0.8750000  )
       240           N   tau( 240) = (   0.7500000   0.6250000   0.8750000  )
       241           N   tau( 241) = (   0.7500000   0.7500000   0.0000000  )
       242           N   tau( 242) = (   0.8750000   0.8750000   0.0000000  )
       243           N   tau( 243) = (   0.8750000   0.7500000   0.1250000  )
       244           N   tau( 244) = (   0.7500000   0.8750000   0.1250000  )
       245           N   tau( 245) = (   0.7500000   0.7500000   0.2500000  )
       246           N   tau( 246) = (   0.8750000   0.8750000   0.2500000  )
       247           N   tau( 247) = (   0.8750000   0.7500000   0.3750000  )
       248           N   tau( 248) = (   0.7500000   0.8750000   0.3750000  )
       249           N   tau( 249) = (   0.7500000   0.7500000   0.5000000  )
       250           N   tau( 250) = (   0.8750000   0.8750000   0.5000000  )
       251           N   tau( 251) = (   0.8750000   0.7500000   0.6250000  )
       252           N   tau( 252) = (   0.7500000   0.8750000   0.6250000  )
       253           N   tau( 253) = (   0.7500000   0.7500000   0.7500000  )
       254           N   tau( 254) = (   0.8750000   0.8750000   0.7500000  )
       255           N   tau( 255) = (   0.8750000   0.7500000   0.8750000  )
       256           N   tau( 256) = (   0.7500000   0.8750000   0.8750000  )

     number of k points=     1  Marzari-Vanderbilt smearing, width (Ry)=  0.0500
                       cart. coord. in units 2pi/alat
        k(    1) = (  -0.5000000  -0.5000000  -0.5000000), wk =   2.0000000

     Dense  grid:  2231883 G-vectors     FFT dimensions: ( 180, 180, 180)

     Largest allocated arrays     est. size (Mb)     dimensions
        Kohn-Sham Wavefunctions       106.13 Mb     (   2156, 3226)
        NL pseudopotentials           151.59 Mb     (   2156, 4608)
        Each V/rho on FFT grid          0.49 Mb     (  32400)
        Each G-vector array             0.06 Mb     (   8456)
        G-vector shells                 0.02 Mb     (   2693)
     Largest temporary arrays     est. size (Mb)     dimensions
        Auxiliary wavefunctions       424.52 Mb     (   2156,12904)
        Each subspace H/S matrix       21.00 Mb     (1173,1173)
        Each <psi_i|beta_j> matrix    226.83 Mb     (   4608, 3226)
        Arrays for rho mixing           3.96 Mb     (  32400,   8)

     Check: negative/imaginary core charge=   -0.000007    0.000000

     Initial potential from superposition of free atoms

     starting charge 4607.90207, renormalised to 4608.00000
     Starting wfc are 2560 randomized atomic wfcs
     Checking if some PAW data can be deallocated... 

     total cpu time spent up to now is       89.4 secs

     per-process dynamical memory:   435.6 Mb

     Self-consistent Calculation

     iteration #  1     ecut=   120.00 Ry     beta=0.70
     Davidson diagonalization with overlap
     ethr =  1.00E-02,  avg # of iterations =  7.0

     Threshold (ethr) on eigenvalues was too large:
     Diagonalizing with lowered threshold

     Davidson diagonalization with overlap
     ethr =  6.22E-05,  avg # of iterations =  8.0

     total cpu time spent up to now is     1482.7 secs

     total energy              = -131079.26471647 Ry
     Harris-Foulkes estimate   = -131080.55052761 Ry
     estimated scf accuracy    <       2.83363562 Ry

     iteration #  2     ecut=   120.00 Ry     beta=0.70
     Davidson diagonalization with overlap
     ethr =  6.15E-05,  avg # of iterations =  2.0

     total cpu time spent up to now is     1830.6 secs

     total energy              = -131079.74797761 Ry
     Harris-Foulkes estimate   = -131079.81820413 Ry
     estimated scf accuracy    <       0.19517890 Ry

     iteration #  3     ecut=   120.00 Ry     beta=0.70
     Davidson diagonalization with overlap
     ethr =  4.24E-06,  avg # of iterations =  3.0

     total cpu time spent up to now is     2202.4 secs

     total energy              = -131079.75998003 Ry
     Harris-Foulkes estimate   = -131079.77570660 Ry
     estimated scf accuracy    <       0.29078520 Ry

     iteration #  4     ecut=   120.00 Ry     beta=0.70
     Davidson diagonalization with overlap
     ethr =  4.24E-06,  avg # of iterations =  1.0

     total cpu time spent up to now is     2466.7 secs

     total energy              = -131079.76208468 Ry
     Harris-Foulkes estimate   = -131079.77032082 Ry
     estimated scf accuracy    <       0.17852952 Ry

     iteration #  5     ecut=   120.00 Ry     beta=0.70
     Davidson diagonalization with overlap
     ethr =  3.87E-06,  avg # of iterations =  1.0

     total cpu time spent up to now is     2730.5 secs

     total energy              = -131079.76425765 Ry
     Harris-Foulkes estimate   = -131079.76576642 Ry
     estimated scf accuracy    <       0.02169951 Ry

     iteration #  6     ecut=   120.00 Ry     beta=0.70
     Davidson diagonalization with overlap
     ethr =  4.71E-07,  avg # of iterations =  1.0

     total cpu time spent up to now is     2993.7 secs

     total energy              = -131079.76523480 Ry
     Harris-Foulkes estimate   = -131079.76520855 Ry
     estimated scf accuracy    <       0.00259451 Ry

     iteration #  7     ecut=   120.00 Ry     beta=0.70
     Davidson diagonalization with overlap
     ethr =  5.63E-08,  avg # of iterations =  1.0

     total cpu time spent up to now is     3257.6 secs

     total energy              = -131079.76525346 Ry
     Harris-Foulkes estimate   = -131079.76554245 Ry
     estimated scf accuracy    <       0.00362757 Ry

     iteration #  8     ecut=   120.00 Ry     beta=0.70
     Davidson diagonalization with overlap
     ethr =  5.63E-08,  avg # of iterations =  1.0

     total cpu time spent up to now is     3521.9 secs

     total energy              = -131079.76540891 Ry
     Harris-Foulkes estimate   = -131079.76543047 Ry
     estimated scf accuracy    <       0.00024075 Ry

     iteration #  9     ecut=   120.00 Ry     beta=0.70
     Davidson diagonalization with overlap
     ethr =  5.22E-09,  avg # of iterations =  3.0

     total cpu time spent up to now is     3847.8 secs

     total energy              = -131079.76541837 Ry
     Harris-Foulkes estimate   = -131079.76542399 Ry
     estimated scf accuracy    <       0.00003095 Ry

     iteration # 10     ecut=   120.00 Ry     beta=0.70
     Davidson diagonalization with overlap
     ethr =  6.72E-10,  avg # of iterations =  3.0

     total cpu time spent up to now is     4234.2 secs

     total energy              = -131079.76542208 Ry
     Harris-Foulkes estimate   = -131079.76542411 Ry
     estimated scf accuracy    <       0.00001750 Ry

     iteration # 11     ecut=   120.00 Ry     beta=0.70
     Davidson diagonalization with overlap
     ethr =  3.80E-10,  avg # of iterations =  1.0

     total cpu time spent up to now is     4498.8 secs

     total energy              = -131079.76542346 Ry
     Harris-Foulkes estimate   = -131079.76542374 Ry
     estimated scf accuracy    <       0.00000501 Ry

     iteration # 12     ecut=   120.00 Ry     beta=0.70
     Davidson diagonalization with overlap
     ethr =  1.09E-10,  avg # of iterations =  1.0

     total cpu time spent up to now is     4763.0 secs

     total energy              = -131079.76542355 Ry
     Harris-Foulkes estimate   = -131079.76542372 Ry
     estimated scf accuracy    <       0.00000094 Ry

     iteration # 13     ecut=   120.00 Ry     beta=0.70
     Davidson diagonalization with overlap
     ethr =  2.05E-11,  avg # of iterations =  1.0

     total cpu time spent up to now is     5026.7 secs

     total energy              = -131079.76542358 Ry
     Harris-Foulkes estimate   = -131079.76542368 Ry
     estimated scf accuracy    <       0.00000066 Ry

     iteration # 14     ecut=   120.00 Ry     beta=0.70
     Davidson diagonalization with overlap
     ethr =  1.43E-11,  avg # of iterations =  1.0

     total cpu time spent up to now is     5290.4 secs

     total energy              = -131079.76542364 Ry
     Harris-Foulkes estimate   = -131079.76542362 Ry
     estimated scf accuracy    <       0.00000018 Ry

     iteration # 15     ecut=   120.00 Ry     beta=0.70
     Davidson diagonalization with overlap
     ethr =  4.00E-12,  avg # of iterations =  1.0

     total cpu time spent up to now is     5553.8 secs

     End of self-consistent calculation

          k =-0.5000-0.5000-0.5000 (564528 PWs)   bands (ev):

   -64.2449 -64.2449 -64.2449 -64.2449 -64.2449 -64.2449 -64.2449 -64.2449
   -64.2267 -64.2267 -64.2267 -64.2267 -64.2267 -64.2267 -64.2266 -64.2266
   -64.2266 -64.2266 -64.2266 -64.2266 -64.2266 -64.2266 -64.2266 -64.2266
   -64.2266 -64.2266 -64.2266 -64.2266 -64.2266 -64.2266 -64.2266 -64.2266
   -64.2137 -64.2137 -64.2137 -64.2137 -64.2137 -64.2137 -64.2137 -64.2137
   -64.2137 -64.2137 -64.2137 -64.2137 -64.2137 -64.2137 -64.2137 -64.2137
   -64.2137 -64.2137 -64.2137 -64.2137 -64.2137 -64.2137 -64.2137 -64.2137
   -64.2061 -64.2061 -64.2061 -64.2061 -64.2061 -64.2061 -64.2061 -64.2061
   -64.2008 -64.2008 -64.2008 -64.2008 -64.2008 -64.2008 -64.2008 -64.2008
   -64.2008 -64.2008 -64.2008 -64.2008 -64.2008 -64.2008 -64.2008 -64.2008
   -64.2008 -64.2008 -64.2008 -64.2008 -64.2008 -64.2008 -64.2008 -64.2008
   -64.1955 -64.1955 -64.1955 -64.1955 -64.1955 -64.1955 -64.1955 -64.1955
   -64.1955 -64.1955 -64.1955 -64.1955 -64.1955 -64.1955 -64.1955 -64.1955
   -64.1955 -64.1955 -64.1955 -64.1955 -64.1955 -64.1955 -64.1955 -64.1955
   -64.1955 -64.1955 -64.1955 -64.1955 -64.1955 -64.1955 -64.1955 -64.1955
   -64.1955 -64.1955 -64.1955 -64.1955 -64.1955 -64.1955 -64.1955 -64.1955
   -64.1953 -64.1953 -64.1953 -64.1953 -64.1953 -64.1953 -64.1953 -64.1953
   -64.1953 -64.1953 -64.1953 -64.1953 -64.1952 -64.1952 -64.1952 -64.1952
   -64.1952 -64.1952 -64.1952 -64.1952 -64.1952 -64.1952 -64.1952 -64.1952
   -64.1950 -64.1950 -64.1950 -64.1950 -64.1950 -64.1950 -64.1950 -64.1950
   -64.1878 -64.1878 -64.1878 -64.1878 -64.1878 -64.1878 -64.1878 -64.1878
   -64.1878 -64.1878 -64.1878 -64.1878 -64.1878 -64.1878 -64.1878 -64.1878
   -64.1878 -64.1878 -64.1878 -64.1878 -64.1878 -64.1878 -64.1878 -64.1878
   -64.1827 -64.1827 -64.1827 -64.1827 -64.1827 -64.1827 -64.1827 -64.1827
   -64.1827 -64.1827 -64.1827 -64.1827 -64.1827 -64.1827 -64.1827 -64.1827
   -64.1826 -64.1826 -64.1826 -64.1826 -64.1826 -64.1826 -64.1826 -64.1826
   -64.1826 -64.1826 -64.1826 -64.1826 -64.1826 -64.1826 -64.1826 -64.1826
   -64.1826 -64.1826 -64.1826 -64.1826 -64.1826 -64.1826 -64.1826 -64.1826
   -64.1824 -64.1824 -64.1824 -64.1823 -64.1823 -64.1823 -64.1823 -64.1823
   -64.1823 -64.1823 -64.1823 -64.1823 -64.1823 -64.1823 -64.1823 -64.1823
   -64.1823 -64.1823 -64.1823 -64.1823 -64.1823 -64.1823 -64.1823 -64.1823
   -64.1823 -64.1823 -64.1823 -64.1823 -64.1823 -64.1823 -64.1823 -64.1822
   -30.1312 -30.1312 -30.1312 -30.1312 -30.1312 -30.1312 -30.1312 -30.1312
   -30.1312 -30.1312 -30.1312 -30.1312 -30.1312 -30.1312 -30.1312 -30.1312
   -30.1312 -30.1312 -30.1312 -30.1312 -30.1312 -30.1312 -30.1312 -30.1312
   -30.1063 -30.1063 -30.1063 -30.1063 -30.1063 -30.1063 -30.1063 -30.1063
   -30.1062 -30.1062 -30.1062 -30.1062 -30.1062 -30.1062 -30.1062 -30.1062
   -30.1062 -30.1062 -30.1062 -30.1062 -30.1062 -30.1062 -30.1062 -30.1062
   -30.0967 -30.0967 -30.0967 -30.0967 -30.0967 -30.0967 -30.0967 -30.0967
   -30.0757 -30.0757 -30.0757 -30.0757 -30.0757 -30.0757 -30.0757 -30.0757
   -30.0757 -30.0757 -30.0757 -30.0757 -30.0757 -30.0757 -30.0757 -30.0757
   -30.0757 -30.0757 -30.0757 -30.0757 -30.0757 -30.0757 -30.0757 -30.0757
   -30.0667 -30.0667 -30.0667 -30.0667 -30.0667 -30.0667 -30.0667 -30.0667
   -30.0667 -30.0667 -30.0667 -30.0667 -30.0667 -30.0667 -30.0667 -30.0667
   -30.0667 -30.0667 -30.0667 -30.0667 -30.0667 -30.0667 -30.0667 -30.0667
   -30.0667 -30.0667 -30.0667 -30.0667 -30.0667 -30.0667 -30.0667 -30.0667
   -30.0667 -30.0667 -30.0667 -30.0667 -30.0667 -30.0667 -30.0667 -30.0667
   -30.0667 -30.0667 -30.0667 -30.0667 -30.0667 -30.0667 -30.0667 -30.0667
   -30.0637 -30.0637 -30.0637 -30.0637 -30.0637 -30.0637 -30.0637 -30.0637
   -30.0637 -30.0637 -30.0637 -30.0637 -30.0637 -30.0637 -30.0637 -30.0637
   -30.0637 -30.0637 -30.0637 -30.0637 -30.0637 -30.0637 -30.0637 -30.0637
   -30.0637 -30.0637 -30.0637 -30.0637 -30.0637 -30.0637 -30.0637 -30.0637
   -30.0637 -30.0637 -30.0637 -30.0637 -30.0637 -30.0637 -30.0637 -30.0637
   -30.0637 -30.0637 -30.0637 -30.0637 -30.0636 -30.0636 -30.0636 -30.0636
   -30.0312 -30.0312 -30.0312 -30.0312 -30.0312 -30.0312 -30.0312 -30.0312
   -30.0312 -30.0312 -30.0312 -30.0312 -30.0312 -30.0312 -30.0312 -30.0312
   -30.0312 -30.0312 -30.0312 -30.0312 -30.0312 -30.0312 -30.0312 -30.0312
   -30.0039 -30.0039 -30.0039 -30.0039 -30.0039 -30.0039 -30.0039 -30.0039
   -30.0039 -30.0039 -30.0039 -30.0039 -30.0039 -30.0039 -30.0039 -30.0039
   -30.0039 -30.0039 -30.0039 -30.0039 -30.0039 -30.0039 -30.0039 -30.0039
   -29.9686 -29.9686 -29.9686 -29.9686 -29.9686 -29.9686 -29.9686 -29.9686
   -29.9686 -29.9686 -29.9686 -29.9686 -29.9686 -29.9686 -29.9686 -29.9686
   -29.9686 -29.9686 -29.9686 -29.9686 -29.9686 -29.9686 -29.9686 -29.9686
   -29.9686 -29.9686 -29.9686 -29.9686 -29.9686 -29.9686 -29.9686 -29.9686
   -29.9686 -29.9686 -29.9686 -29.9686 -29.9686 -29.9686 -29.9686 -29.9686
   -29.9686 -29.9686 -29.9686 -29.9686 -29.9686 -29.9686 -29.9686 -29.9686
   -29.9503 -29.9503 -29.9503 -29.9503 -29.9503 -29.9503 -29.9503 -29.9503
   -29.9503 -29.9503 -29.9503 -29.9503 -29.9503 -29.9503 -29.9503 -29.9503
   -29.9503 -29.9503 -29.9503 -29.9503 -29.9503 -29.9503 -29.9503 -29.9503
   -29.9154 -29.9154 -29.9154 -29.9154 -29.9154 -29.9154 -29.9154 -29.9154
   -29.9154 -29.9154 -29.9154 -29.9154 -29.9154 -29.9154 -29.9154 -29.9154
   -29.9152 -29.9152 -29.9152 -29.9152 -29.9152 -29.9152 -29.9152 -29.9152
   -29.9113 -29.9113 -29.9113 -29.9113 -29.9113 -29.9113 -29.9113 -29.9113
   -29.9113 -29.9113 -29.9113 -29.9113 -29.9113 -29.9113 -29.9113 -29.9113
   -29.9113 -29.9113 -29.9113 -29.9113 -29.9113 -29.9113 -29.9113 -29.9113
   -29.8955 -29.8955 -29.8955 -29.8955 -29.8955 -29.8955 -29.8955 -29.8955
   -29.8955 -29.8955 -29.8955 -29.8955 -29.8955 -29.8955 -29.8955 -29.8955
   -29.8955 -29.8955 -29.8955 -29.8955 -29.8955 -29.8955 -29.8955 -29.8955
   -29.8954 -29.8954 -29.8954 -29.8954 -29.8954 -29.8954 -29.8954 -29.8954
   -29.8954 -29.8954 -29.8954 -29.8954 -29.8954 -29.8954 -29.8954 -29.8954
   -29.8954 -29.8954 -29.8954 -29.8954 -29.8954 -29.8954 -29.8954 -29.8954
   -29.8837 -29.8837 -29.8837 -29.8837 -29.8836 -29.8836 -29.8836 -29.8836
   -29.8836 -29.8836 -29.8836 -29.8836 -29.8836 -29.8836 -29.8836 -29.8836
   -29.8836 -29.8836 -29.8836 -29.8836 -29.8836 -29.8836 -29.8836 -29.8836
   -29.8757 -29.8757 -29.8757 -29.8757 -29.8757 -29.8757 -29.8757 -29.8757
   -29.8757 -29.8757 -29.8757 -29.8757 -29.8757 -29.8757 -29.8757 -29.8757
   -29.8757 -29.8757 -29.8757 -29.8757 -29.8757 -29.8757 -29.8757 -29.8757
   -29.8756 -29.8756 -29.8756 -29.8756 -29.8756 -29.8756 -29.8756 -29.8756
   -29.8756 -29.8756 -29.8756 -29.8756 -29.8756 -29.8756 -29.8756 -29.8756
   -29.8756 -29.8756 -29.8756 -29.8756 -29.8756 -29.8756 -29.8756 -29.8756
   -29.8567 -29.8567 -29.8567 -29.8567 -29.8567 -29.8567 -29.8567 -29.8567
   -29.8567 -29.8567 -29.8567 -29.8567 -29.8567 -29.8567 -29.8567 -29.8567
   -29.8567 -29.8567 -29.8567 -29.8567 -29.8567 -29.8567 -29.8567 -29.8567
   -29.8450 -29.8450 -29.8450 -29.8450 -29.8450 -29.8450 -29.8450 -29.8450
   -29.8450 -29.8450 -29.8450 -29.8450 -29.8450 -29.8450 -29.8450 -29.8450
   -29.8450 -29.8450 -29.8450 -29.8450 -29.8450 -29.8450 -29.8450 -29.8450
   -29.8388 -29.8388 -29.8388 -29.8388 -29.8388 -29.8388 -29.8388 -29.8388
   -29.8388 -29.8388 -29.8388 -29.8388 -29.8388 -29.8388 -29.8388 -29.8388
   -29.8387 -29.8387 -29.8387 -29.8387 -29.8387 -29.8387 -29.8387 -29.8387
   -29.8323 -29.8323 -29.8323 -29.8323 -29.8323 -29.8323 -29.8323 -29.8323
   -29.8323 -29.8323 -29.8323 -29.8323 -29.8323 -29.8323 -29.8323 -29.8323
   -29.8323 -29.8323 -29.8323 -29.8323 -29.8323 -29.8323 -29.8323 -29.8323
   -29.8293 -29.8293 -29.8293 -29.8293 -29.8293 -29.8293 -29.8293 -29.8293
   -29.8293 -29.8293 -29.8293 -29.8293 -29.8293 -29.8293 -29.8293 -29.8293
   -29.8293 -29.8293 -29.8293 -29.8293 -29.8293 -29.8293 -29.8293 -29.8293
   -29.8237 -29.8237 -29.8237 -29.8237 -29.8237 -29.8237 -29.8237 -29.8237
   -29.8237 -29.8237 -29.8237 -29.8237 -29.8237 -29.8237 -29.8237 -29.8237
   -29.8237 -29.8237 -29.8237 -29.8237 -29.8237 -29.8237 -29.8237 -29.8237
   -29.8236 -29.8236 -29.8236 -29.8236 -29.8236 -29.8236 -29.8236 -29.8236
   -29.8236 -29.8236 -29.8236 -29.8236 -29.8236 -29.8236 -29.8236 -29.8236
   -29.8236 -29.8236 -29.8236 -29.8236 -29.8236 -29.8236 -29.8236 -29.8236
   -29.8162 -29.8162 -29.8162 -29.8162 -29.8162 -29.8162 -29.8162 -29.8162
   -29.8161 -29.8161 -29.8161 -29.8161 -29.8161 -29.8161 -29.8161 -29.8161
   -29.8161 -29.8161 -29.8161 -29.8161 -29.8161 -29.8161 -29.8161 -29.8161
   -29.8042 -29.8042 -29.8042 -29.8042 -29.8042 -29.8042 -29.8042 -29.8042
   -29.7934 -29.7934 -29.7934 -29.7934 -29.7934 -29.7934 -29.7934 -29.7934
   -29.7934 -29.7934 -29.7934 -29.7934 -29.7934 -29.7934 -29.7934 -29.7934
   -29.7902 -29.7902 -29.7902 -29.7902 -29.7902 -29.7902 -29.7902 -29.7902
   -29.7902 -29.7902 -29.7902 -29.7902 -29.7902 -29.7902 -29.7902 -29.7902
   -29.7902 -29.7902 -29.7902 -29.7902 -29.7902 -29.7902 -29.7902 -29.7902
   -29.7838 -29.7838 -29.7838 -29.7838 -29.7838 -29.7838 -29.7838 -29.7838
   -29.7838 -29.7838 -29.7838 -29.7838 -29.7838 -29.7838 -29.7838 -29.7838
   -29.7838 -29.7838 -29.7838 -29.7837 -29.7837 -29.7837 -29.7837 -29.7837
   -29.7774 -29.7774 -29.7774 -29.7774 -29.7774 -29.7774 -29.7774 -29.7774
   -29.7774 -29.7774 -29.7774 -29.7774 -29.7774 -29.7774 -29.7774 -29.7774
   -29.7774 -29.7774 -29.7774 -29.7774 -29.7774 -29.7774 -29.7774 -29.7774
   -29.7514 -29.7514 -29.7514 -29.7514 -29.7514 -29.7514 -29.7514 -29.7514
   -29.7514 -29.7514 -29.7514 -29.7514 -29.7514 -29.7514 -29.7514 -29.7514
    13.3383  13.3383  13.3383  13.3383  13.3383  13.3383  13.3383  13.3383
    14.5451  14.5451  14.5451  14.5451  14.5451  14.5451  14.5451  14.5451
    14.5451  14.5451  14.5451  14.5451  14.5451  14.5451  14.5451  14.5451
    14.5451  14.5451  14.5451  14.5451  14.5451  14.5451  14.5451  14.5451
    14.7146  14.7146  14.7146  14.7146  14.7146  14.7146  14.7146  14.7146
    14.8277  14.8277  14.8277  14.8277  14.8277  14.8277  14.8277  14.8277
    14.8277  14.8277  14.8277  14.8277  14.8277  14.8277  14.8277  14.8277
    14.8278  14.8278  14.8278  14.8278  14.8278  14.8278  14.8278  14.8278
    14.9850  14.9850  14.9850  14.9850  14.9850  14.9850  14.9850  14.9850
    14.9850  14.9850  14.9850  14.9850  14.9850  14.9850  14.9850  14.9850
    14.9850  14.9850  14.9850  14.9850  14.9850  14.9850  14.9850  14.9850
    15.1261  15.1261  15.1261  15.1261  15.1261  15.1261  15.1261  15.1261
    15.1262  15.1262  15.1262  15.1262  15.1262  15.1262  15.1262  15.1262
    15.1262  15.1262  15.1262  15.1262  15.1262  15.1262  15.1262  15.1262
    15.1290  15.1290  15.1290  15.1290  15.1290  15.1290  15.1290  15.1290
    15.1290  15.1290  15.1290  15.1290  15.1290  15.1290  15.1290  15.1290
    15.1290  15.1290  15.1290  15.1290  15.1290  15.1290  15.1290  15.1290
    15.2625  15.2625  15.2625  15.2625  15.2625  15.2625  15.2625  15.2625
    15.2625  15.2625  15.2625  15.2625  15.2625  15.2625  15.2625  15.2625
    15.2625  15.2625  15.2625  15.2625  15.2625  15.2625  15.2625  15.2625
    15.5020  15.5020  15.5020  15.5020  15.5020  15.5020  15.5020  15.5020
    15.5020  15.5020  15.5020  15.5020  15.5020  15.5020  15.5020  15.5020
    15.5020  15.5020  15.5020  15.5020  15.5020  15.5020  15.5020  15.5020
    15.5020  15.5020  15.5020  15.5020  15.5020  15.5020  15.5020  15.5020
    15.5020  15.5020  15.5020  15.5020  15.5020  15.5020  15.5020  15.5020
    15.5020  15.5020  15.5020  15.5020  15.5020  15.5020  15.5020  15.5020
    15.6237  15.6237  15.6237  15.6237  15.6237  15.6237  15.6237  15.6237
    15.6237  15.6237  15.6237  15.6237  15.6237  15.6237  15.6237  15.6237
    15.6237  15.6237  15.6237  15.6237  15.6237  15.6237  15.6237  15.6237
    15.6237  15.6237  15.6237  15.6237  15.6237  15.6237  15.6237  15.6237
    15.6237  15.6237  15.6237  15.6237  15.6237  15.6237  15.6237  15.6237
    15.6237  15.6237  15.6237  15.6237  15.6237  15.6237  15.6237  15.6237
    15.6356  15.6356  15.6356  15.6356  15.6356  15.6356  15.6356  15.6356
    15.6356  15.6356  15.6356  15.6356  15.6356  15.6356  15.6356  15.6356
    15.6356  15.6356  15.6356  15.6356  15.6356  15.6356  15.6356  15.6356
    15.6778  15.6778  15.6778  15.6778  15.6778  15.6778  15.6778  15.6778
    15.6778  15.6778  15.6778  15.6778  15.6778  15.6778  15.6778  15.6778
    15.6778  15.6778  15.6778  15.6778  15.6778  15.6778  15.6778  15.6778
    15.9371  15.9371  15.9371  15.9371  15.9371  15.9371  15.9371  15.9371
    15.9371  15.9371  15.9371  15.9371  15.9371  15.9371  15.9371  15.9371
    15.9371  15.9371  15.9371  15.9371  15.9371  15.9371  15.9371  15.9371
    15.9371  15.9371  15.9371  15.9371  15.9371  15.9371  15.9371  15.9371
    15.9371  15.9371  15.9371  15.9371  15.9371  15.9371  15.9371  15.9371
    15.9371  15.9371  15.9371  15.9371  15.9371  15.9371  15.9371  15.9371
    16.4025  16.4025  16.4025  16.4025  16.4025  16.4025  16.4025  16.4025
    16.4025  16.4025  16.4025  16.4025  16.4025  16.4025  16.4025  16.4025
    16.4025  16.4025  16.4025  16.4025  16.4025  16.4025  16.4025  16.4025
    16.4086  16.4086  16.4086  16.4086  16.4086  16.4086  16.4086  16.4086
    16.4086  16.4086  16.4086  16.4086  16.4086  16.4086  16.4086  16.4086
    16.4086  16.4086  16.4086  16.4086  16.4086  16.4086  16.4086  16.4086
    16.4937  16.4937  16.4937  16.4937  16.4937  16.4937  16.4937  16.4937
    16.4937  16.4937  16.4937  16.4937  16.4937  16.4937  16.4937  16.4937
    16.4937  16.4937  16.4937  16.4937  16.4937  16.4937  16.4937  16.4937
    16.4938  16.4938  16.4938  16.4938  16.4938  16.4938  16.4938  16.4938
    16.4938  16.4938  16.4938  16.4938  16.4938  16.4938  16.4938  16.4938
    16.4938  16.4938  16.4938  16.4938  16.4938  16.4938  16.4938  16.4938
    16.7669  16.7669  16.7669  16.7669  16.7669  16.7669  16.7669  16.7669
    16.7669  16.7669  16.7669  16.7669  16.7669  16.7669  16.7669  16.7669
    16.7669  16.7669  16.7669  16.7669  16.7669  16.7669  16.7669  16.7669
    16.8301  16.8301  16.8301  16.8301  16.8301  16.8301  16.8301  16.8301
    16.8301  16.8301  16.8301  16.8301  16.8301  16.8301  16.8301  16.8301
    16.8301  16.8301  16.8301  16.8301  16.8301  16.8301  16.8301  16.8301
    16.9076  16.9076  16.9076  16.9076  16.9076  16.9076  16.9076  16.9076
    16.9076  16.9076  16.9076  16.9076  16.9076  16.9076  16.9076  16.9076
    16.9076  16.9076  16.9076  16.9076  16.9076  16.9076  16.9076  16.9076
    16.9076  16.9076  16.9076  16.9076  16.9076  16.9076  16.9076  16.9076
    16.9076  16.9076  16.9076  16.9076  16.9076  16.9076  16.9076  16.9076
    16.9076  16.9076  16.9076  16.9076  16.9076  16.9076  16.9076  16.9076
    16.9190  16.9190  16.9190  16.9190  16.9190  16.9190  16.9190  16.9190
    17.1626  17.1626  17.1626  17.1626  17.1626  17.1626  17.1626  17.1626
    17.1626  17.1626  17.1626  17.1626  17.1626  17.1626  17.1626  17.1626
    17.2604  17.2604  17.2604  17.2604  17.2604  17.2604  17.2604  17.2604
    17.2604  17.2604  17.2604  17.2604  17.2604  17.2604  17.2604  17.2604
    17.2923  17.2923  17.2923  17.2923  17.2923  17.2923  17.2923  17.2923
    17.2923  17.2923  17.2923  17.2923  17.2923  17.2923  17.2923  17.2923
    17.2923  17.2923  17.2923  17.2923  17.2923  17.2923  17.2923  17.2923
    17.2983  17.2983  17.2983  17.2983  17.2983  17.2983  17.2983  17.2983
    17.2983  17.2983  17.2983  17.2983  17.2983  17.2983  17.2983  17.2983
    17.2983  17.2983  17.2983  17.2983  17.2983  17.2983  17.2983  17.2983
    17.3103  17.3103  17.3103  17.3103  17.3103  17.3103  17.3103  17.3103
    17.3103  17.3103  17.3103  17.3103  17.3103  17.3103  17.3103  17.3103
    17.3103  17.3103  17.3103  17.3103  17.3103  17.3103  17.3103  17.3103
    17.3103  17.3103  17.3103  17.3103  17.3103  17.3103  17.3103  17.3103
    17.3103  17.3103  17.3103  17.3103  17.3103  17.3103  17.3103  17.3103
    17.3103  17.3103  17.3103  17.3103  17.3103  17.3103  17.3103  17.3103
    17.3881  17.3881  17.3881  17.3881  17.3881  17.3881  17.3881  17.3881
    17.3881  17.3881  17.3881  17.3881  17.3881  17.3881  17.3881  17.3881
    17.3881  17.3881  17.3881  17.3881  17.3881  17.3881  17.3881  17.3881
    17.4907  17.4907  17.4907  17.4907  17.4907  17.4907  17.4907  17.4907
    17.4907  17.4907  17.4907  17.4907  17.4907  17.4907  17.4907  17.4907
    17.4907  17.4907  17.4907  17.4907  17.4907  17.4907  17.4907  17.4907
    17.6097  17.6097  17.6097  17.6097  17.6097  17.6097  17.6097  17.6097
    17.6097  17.6097  17.6097  17.6097  17.6097  17.6097  17.6097  17.6097
    17.6097  17.6097  17.6097  17.6097  17.6097  17.6097  17.6097  17.6097
    17.7098  17.7098  17.7098  17.7098  17.7098  17.7098  17.7098  17.7098
    17.7098  17.7098  17.7098  17.7098  17.7098  17.7098  17.7098  17.7098
    17.7098  17.7098  17.7098  17.7098  17.7098  17.7098  17.7098  17.7098
    17.8519  17.8519  17.8519  17.8519  17.8519  17.8519  17.8519  17.8519
    17.8519  17.8519  17.8519  17.8519  17.8519  17.8519  17.8519  17.8519
    17.8519  17.8519  17.8519  17.8519  17.8519  17.8519  17.8519  17.8519
    18.1317  18.1317  18.1317  18.1317  18.1317  18.1317  18.1317  18.1317
    18.1317  18.1317  18.1317  18.1317  18.1317  18.1317  18.1317  18.1317
    18.1317  18.1317  18.1317  18.1317  18.1317  18.1317  18.1317  18.1317
    18.1913  18.1913  18.1913  18.1913  18.1913  18.1913  18.1913  18.1913
    18.1913  18.1913  18.1913  18.1913  18.1913  18.1913  18.1913  18.1913
    18.1913  18.1913  18.1913  18.1913  18.1913  18.1913  18.1913  18.1913
    18.1913  18.1913  18.1913  18.1913  18.1913  18.1913  18.1913  18.1913
    18.1913  18.1913  18.1913  18.1913  18.1913  18.1913  18.1913  18.1913
    18.1913  18.1913  18.1913  18.1913  18.1913  18.1913  18.1913  18.1913
    18.3213  18.3213  18.3213  18.3213  18.3213  18.3213  18.3213  18.3213
    18.3213  18.3213  18.3213  18.3213  18.3213  18.3213  18.3213  18.3213
    18.3213  18.3213  18.3213  18.3213  18.3213  18.3213  18.3213  18.3213
    18.5200  18.5200  18.5200  18.5200  18.5200  18.5200  18.5200  18.5200
    18.5200  18.5200  18.5200  18.5200  18.5200  18.5200  18.5200  18.5200
    18.5200  18.5200  18.5200  18.5200  18.5200  18.5200  18.5200  18.5200
    18.5566  18.5566  18.5566  18.5566  18.5566  18.5566  18.5566  18.5566
    18.5566  18.5566  18.5566  18.5566  18.5566  18.5566  18.5566  18.5566
    18.5566  18.5566  18.5566  18.5566  18.5566  18.5566  18.5566  18.5566
    18.5579  18.5579  18.5579  18.5579  18.5579  18.5579  18.5579  18.5579
    18.5579  18.5579  18.5579  18.5579  18.5579  18.5579  18.5579  18.5579
    18.5579  18.5579  18.5579  18.5579  18.5579  18.5579  18.5579  18.5579
    18.6351  18.6351  18.6351  18.6351  18.6351  18.6351  18.6351  18.6351
    18.6351  18.6351  18.6351  18.6351  18.6351  18.6351  18.6351  18.6351
    18.7630  18.7630  18.7630  18.7630  18.7630  18.7630  18.7630  18.7630
    18.7630  18.7630  18.7630  18.7630  18.7630  18.7630  18.7630  18.7630
    18.7630  18.7630  18.7630  18.7630  18.7630  18.7630  18.7630  18.7630
    18.7631  18.7631  18.7631  18.7631  18.7631  18.7631  18.7631  18.7631
    18.7631  18.7631  18.7631  18.7631  18.7631  18.7631  18.7631  18.7631
    18.7631  18.7631  18.7631  18.7631  18.7631  18.7631  18.7631  18.7631
    19.0631  19.0631  19.0631  19.0631  19.0631  19.0631  19.0631  19.0631
    19.0781  19.0781  19.0781  19.0781  19.0781  19.0781  19.0781  19.0781
    19.0781  19.0781  19.0781  19.0781  19.0781  19.0781  19.0781  19.0781
    19.0781  19.0781  19.0781  19.0781  19.0781  19.0781  19.0781  19.0781
    19.1094  19.1094  19.1094  19.1094  19.1094  19.1094  19.1094  19.1094
    19.1094  19.1094  19.1094  19.1094  19.1094  19.1094  19.1094  19.1094
    19.1094  19.1094  19.1094  19.1094  19.1094  19.1094  19.1094  19.1094
    19.4092  19.4092  19.4092  19.4092  19.4092  19.4092  19.4092  19.4092
    19.4092  19.4092  19.4092  19.4092  19.4092  19.4092  19.4092  19.4092
    19.4092  19.4092  19.4092  19.4092  19.4092  19.4092  19.4092  19.4092
    19.4092  19.4092  19.4092  19.4092  19.4092  19.4092  19.4092  19.4092
    19.4092  19.4092  19.4092  19.4092  19.4092  19.4092  19.4092  19.4092
    19.4092  19.4092  19.4092  19.4092  19.4092  19.4092  19.4092  19.4092
    19.4296  19.4296  19.4296  19.4296  19.4296  19.4296  19.4296  19.4296
    19.4297  19.4297  19.4297  19.4297  19.4297  19.4297  19.4297  19.4297
    19.4297  19.4297  19.4297  19.4297  19.4297  19.4297  19.4297  19.4297
    19.4825  19.4825  19.4825  19.4825  19.4825  19.4825  19.4825  19.4825
    19.4825  19.4825  19.4825  19.4825  19.4825  19.4825  19.4825  19.4825
    19.4825  19.4825  19.4825  19.4825  19.4825  19.4825  19.4825  19.4825
    19.5437  19.5437  19.5437  19.5437  19.5437  19.5437  19.5437  19.5437
    19.5437  19.5437  19.5437  19.5437  19.5437  19.5437  19.5437  19.5437
    19.7406  19.7406  19.7406  19.7406  19.7406  19.7406  19.7406  19.7406
    19.7406  19.7406  19.7406  19.7406  19.7406  19.7406  19.7406  19.7406
    19.7406  19.7406  19.7406  19.7406  19.7406  19.7406  19.7406  19.7406
    19.9351  19.9351  19.9351  19.9351  19.9351  19.9351  19.9351  19.9351
    19.9352  19.9352  19.9352  19.9352  19.9352  19.9352  19.9352  19.9352
    19.9352  19.9352  19.9352  19.9352  19.9352  19.9352  19.9352  19.9352
    19.9540  19.9540  19.9540  19.9540  19.9540  19.9540  19.9540  19.9540
    19.9540  19.9540  19.9540  19.9540  19.9540  19.9540  19.9540  19.9540
    19.9540  19.9540  19.9540  19.9540  19.9540  19.9540  19.9540  19.9540
    19.9540  19.9540  19.9540  19.9540  19.9540  19.9540  19.9540  19.9540
    19.9540  19.9540  19.9540  19.9540  19.9540  19.9540  19.9540  19.9540
    19.9540  19.9540  19.9540  19.9540  19.9540  19.9540  19.9540  19.9540
    20.0918  20.0918  20.0918  20.0918  20.0918  20.0918  20.0918  20.0918
    20.0918  20.0918  20.0918  20.0918  20.0918  20.0918  20.0918  20.0918
    20.0918  20.0918  20.0918  20.0918  20.0918  20.0918  20.0918  20.0918
    20.1475  20.1475  20.1475  20.1475  20.1475  20.1475  20.1475  20.1475
    20.1475  20.1475  20.1475  20.1475  20.1475  20.1475  20.1475  20.1475
    20.1475  20.1475  20.1475  20.1475  20.1475  20.1475  20.1475  20.1475
    20.4137  20.4137  20.4137  20.4137  20.4137  20.4137  20.4137  20.4137
    20.4137  20.4137  20.4137  20.4137  20.4137  20.4137  20.4137  20.4137
    20.4137  20.4137  20.4137  20.4137  20.4137  20.4137  20.4137  20.4137
    22.4216  22.4216  22.4216  22.4216  22.4216  22.4216  22.4216  22.4216
    22.4216  22.4216  22.4216  22.4216  22.4216  22.4216  22.4216  22.4216
    22.4216  22.4216  22.4216  22.4216  22.4216  22.4216  22.4216  22.4216
    22.4216  22.4216  22.4216  22.4216  22.4216  22.4216  22.4216  22.4216
    22.4216  22.4216  22.4216  22.4216  22.4217  22.4217  22.4217  22.4217
    22.4217  22.4217  22.4217  22.4217  22.4217  22.4217  22.4217  22.4217
    22.5112  22.5112  22.5112  22.5112  22.5112  22.5112  22.5112  22.5112
    22.5112  22.5112  22.5112  22.5112  22.5112  22.5112  22.5112  22.5112
    22.5112  22.5112  22.5112  22.5112  22.5112  22.5112  22.5112  22.5112
    23.7054  23.7054  23.7054  23.7054  23.7054  23.7054  23.7054  23.7054
    23.7054  23.7054  23.7054  23.7054  23.7054  23.7054  23.7054  23.7054
    23.7054  23.7054  23.7054  23.7054  23.7054  23.7054  23.7054  23.7054
    24.9037  24.9037  24.9037  24.9037  24.9037  24.9037  24.9037  24.9037
    24.9037  24.9037  24.9037  24.9037  24.9038  24.9038  24.9038  24.9038
    24.9038  24.9038  24.9038  24.9038  24.9038  24.9038  24.9038  24.9038
    26.1887  26.1887  26.1887  26.1887  26.1887  26.1887  26.1887  26.1887
    26.1887  26.1887  26.1887  26.1887  26.1887  26.1887  26.1887  26.1887
    26.1887  26.1887  26.1887  26.1887  26.1887  26.1887  26.1887  26.1887
    26.1887  26.1887  26.1887  26.1887  26.1887  26.1887  26.1887  26.1887
    26.1887  26.1887  26.1887  26.1887  26.1887  26.1887  26.1887  26.1887
    26.1887  26.1887  26.1887  26.1887  26.1887  26.1887  26.1887  26.1887
    27.6939  27.6939  27.6939  27.6939  27.6939  27.6939  27.6939  27.6939
    27.6939  27.6939  27.6939  27.6939  27.6939  27.6939  27.6939  27.6939
    27.6940  27.6940  27.6940  27.6940  27.6940  27.6940  27.6940  27.6940
    28.2802  28.2802  28.2802  28.2802  28.2802  28.2802  28.2802  28.2802
    28.2802  28.2802  28.2802  28.2802  28.2802  28.2802  28.2802  28.2802
    28.2802  28.2802  28.2802  28.2802  28.2802  28.2802  28.2802  28.2802
    28.8296  28.8296  28.8296  28.8296  28.8296  28.8296  28.8296  28.8296
    28.8296  28.8296  28.8296  28.8296  28.8296  28.8296  28.8296  28.8296
    28.8296  28.8296  28.8296  28.8296  28.8296  28.8296  28.8296  28.8296
    28.8297  28.8297  28.8297  28.8297  28.8297  28.8297  28.8297  28.8297
    28.8297  28.8297  28.8297  28.8297  28.8297  28.8297  28.8297  28.8297
    28.8297  28.8297  28.8297  28.8297  28.8297  28.8297  28.8297  28.8297
    29.9557  29.9557  29.9557  29.9557  29.9557  29.9557  29.9557  29.9557
    30.6737  30.6737  30.6737  30.6737  30.6737  30.6737  30.6737  30.6737
    30.6737  30.6737  30.6737  30.6737  30.6737  30.6737  30.6737  30.6737
    30.6737  30.6737  30.6737  30.6737  30.6737  30.6737  30.6737  30.6737
    30.6737  30.6737  30.6737  30.6737  30.6737  30.6737  30.6737  30.6737
    30.6737  30.6737  30.6737  30.6737  30.6737  30.6737  30.6737  30.6737
    30.6737  30.6737  30.6737  30.6737  30.6737  30.6737  30.6737  30.6737
    31.4281  31.4281  31.4281  31.4281  31.4281  31.4281  31.4281  31.4281
    31.4281  31.4281  31.4281  31.4281  31.4281  31.4281  31.4281  31.4281
    31.4282  31.4282  31.4282  31.4282  31.4282  31.4282  31.4282  31.4282
    32.1123  32.1123  32.1123  32.1123  32.1123  32.1123  32.1123  32.1123
    32.1123  32.1123  32.1123  32.1123  32.1123  32.1123  32.1123  32.1123
    32.1123  32.1123  32.1123  32.1123  32.1123  32.1123  32.1123  32.1123
    32.2914  32.2914  32.2914  32.2914  32.2914  32.2914  32.2914  32.2914
    32.2914  32.2914  32.2914  32.2914  32.2914  32.2914  32.2914  32.2914
    32.2914  32.2914  32.2914  32.2914  32.2914  32.2914  32.2914  32.2914
    32.2915  32.2915  32.2915  32.2915  32.2915  32.2915  32.2915  32.2915
    32.2915  32.2915  32.2915  32.2915  32.2915  32.2915  32.2915  32.2915
    32.2915  32.2915  32.2915  32.2915  32.2915  32.2915  32.2915  32.2915
    33.1353  33.1353  33.1353  33.1353  33.1353  33.1353  33.1353  33.1353
    33.1353  33.1353  33.1353  33.1353  33.1353  33.1353  33.1353  33.1353
    33.1353  33.1353  33.1353  33.1353  33.1353  33.1353  33.1353  33.1353
    33.2716  33.2716  33.2716  33.2716  33.2716  33.2716  33.2716  33.2716
    33.2716  33.2716  33.2716  33.2716  33.2716  33.2716  33.2716  33.2716
    33.2716  33.2716  33.2716  33.2716  33.2716  33.2716  33.2716  33.2716
    33.7895  33.7895  33.7895  33.7895  33.7895  33.7895  33.7895  33.7895
    33.7895  33.7895  33.7895  33.7895  33.7895  33.7895  33.7895  33.7895
    33.7895  33.7895  33.7895  33.7895  33.7895  33.7895  33.7895  33.7895
    33.7895  33.7895  33.7895  33.7895  33.7895  33.7895  33.7895  33.7895
    33.7895  33.7895  33.7895  33.7895  33.7895  33.7895  33.7895  33.7895
    33.7895  33.7895  33.7895  33.7895  33.7895  33.7895  33.7895  33.7895
    33.7988  33.7988  33.7988  33.7988  33.7988  33.7988  33.7988  33.7988
    33.7988  33.7988  33.7988  33.7988  33.7988  33.7988  33.7988  33.7988
    33.7988  33.7988  33.7988  33.7988  33.7988  33.7988  33.7988  33.7988
    34.2770  34.2770  34.2770  34.2770  34.2770  34.2770  34.2770  34.2770
    34.2770  34.2770  34.2770  34.2770  34.2770  34.2770  34.2770  34.2770
    34.2770  34.2770  34.2770  34.2770  34.2770  34.2770  34.2770  34.2770
    35.1124  35.1124  35.1124  35.1124  35.1124  35.1124  35.1124  35.1124
    35.1124  35.1124  35.1124  35.1124  35.1124  35.1124  35.1124  35.1124
    35.1124  35.1124  35.1124  35.1124  35.1124  35.1124  35.1124  35.1124
    35.1124  35.1124  35.1124  35.1124  35.1124  35.1124  35.1124  35.1124
    35.1124  35.1124  35.1124  35.1124  35.1124  35.1124  35.1124  35.1124
    35.1124  35.1124  35.1124  35.1124  35.1124  35.1124  35.1124  35.1124
    36.3299  36.3299  36.3299  36.3299  36.3299  36.3299  36.3299  36.3299
    36.3299  36.3299  36.3299  36.3299  36.3299  36.3299  36.3299  36.3299
    36.3299  36.3299  36.3299  36.3299  36.3299  36.3299  36.3299  36.3299
    36.7124  36.7124  36.7124  36.7124  36.7124  36.7124  36.7124  36.7124
    36.7124  36.7124  36.7124  36.7124  36.7124  36.7124  36.7124  36.7124
    36.7124  36.7124  36.7124  36.7124  36.7124  36.7124  36.7124  36.7124
    36.7374  36.7374  36.7374  36.7374  36.7374  36.7374  36.7374  36.7374
    36.7374  36.7374  36.7374  36.7374  36.7374  36.7374  36.7374  36.7374
    36.7374  36.7374  36.7374  36.7374  36.7374  36.7374  36.7374  36.7374
    36.7380  36.7380  36.7380  36.7380  36.7380  36.7380  36.7380  36.7380
    36.7380  36.7380  36.7380  36.7380  36.7380  36.7380  36.7380  36.7380
    36.7380  36.7380  36.7380  36.7380  36.7380  36.7380  36.7380  36.7380
    37.0605  37.0605  37.0605  37.0605  37.0605  37.0605  37.0605  37.0605
    37.0605  37.0605  37.0605  37.0605  37.0605  37.0605  37.0605  37.0605
    37.0605  37.0605  37.0605  37.0605  37.0605  37.0605  37.0605  37.0605
    37.1219  37.1219  37.1219  37.1219  37.1219  37.1219  37.1219  37.1219
    37.3100  37.3100  37.3100  37.3100  37.3100  37.3100  37.3100  37.3100
    37.3100  37.3100  37.3100  37.3100  37.3100  37.3100  37.3100  37.3100
    37.3100  37.3100  37.3100  37.3100  37.3100  37.3100  37.3100  37.3100
    37.3100  37.3100  37.3100  37.3100  37.3100  37.3100  37.3100  37.3100
    37.3100  37.3100  37.3100  37.3100  37.3100  37.3100  37.3100  37.3100
    37.3100  37.3100  37.3100  37.3100  37.3100  37.3100  37.3100  37.3100
    37.6297  37.6297  37.6297  37.6297  37.6297  37.6297  37.6297  37.6297
    38.6874  38.6874  38.6874  38.6874  38.6874  38.6874  38.6874  38.6874
    38.6874  38.6874  38.6874  38.6874  38.6874  38.6874  38.6874  38.6874
    38.6874  38.6874  38.7477  38.7477  38.7477  38.7477  38.7477  38.7477
    38.7477  38.7477  38.7477  38.7477  38.7477  38.7477  38.7477  38.7477
    38.7477  38.7477  38.7477  38.7477  38.7477  38.7477  38.7477  38.7477
    38.7477  38.7477

     the Fermi energy is    20.0435 ev

!    total energy              = -131079.76542367 Ry
     Harris-Foulkes estimate   = -131079.76542365 Ry
     estimated scf accuracy    <       0.00000005 Ry

     total all-electron energy =  -2583566.595276 Ry

     The total energy is the sum of the following terms:

     one-electron contribution =  -19125.29882061 Ry
     hartree contribution      =   13013.61731006 Ry
     xc contribution           =   -7896.76571101 Ry
     ewald contribution        =  -51732.66220586 Ry
     one-center paw contrib.   =  -65339.18807158 Ry
     smearing contrib. (-TS)   =       0.53207533 Ry

     convergence has been achieved in  15 iterations

     Forces acting on atoms (Ry/au):

     atom    1 type  1   force =     0.00000000    0.00000000    0.00000000
     atom    2 type  1   force =     0.00001214    0.00001214   -0.00000000
     atom    3 type  1   force =     0.00001214   -0.00000000    0.00001214
     atom    4 type  1   force =     0.00000000    0.00001214    0.00001214
     atom    5 type  1   force =     0.00001644    0.00000000   -0.00000000
     atom    6 type  1   force =     0.00001510    0.00000955    0.00000955
     atom    7 type  1   force =     0.00001061    0.00000789    0.00000000
     atom    8 type  1   force =     0.00001061   -0.00000000    0.00000789
     atom    9 type  1   force =     0.00000000    0.00000000    0.00001644
     atom   10 type  1   force =     0.00000955    0.00000955    0.00001510
     atom   11 type  1   force =     0.00000789   -0.00000000    0.00001061
     atom   12 type  1   force =     0.00000000    0.00000789    0.00001061
     atom   13 type  1   force =     0.00000000    0.00000000    0.00000000
     atom   14 type  1   force =     0.00000951    0.00000951    0.00000000
     atom   15 type  1   force =     0.00000789   -0.00000000   -0.00001061
     atom   16 type  1   force =     0.00000000    0.00000789   -0.00001061
     atom   17 type  1   force =     0.00000000    0.00000000   -0.00001644
     atom   18 type  1   force =     0.00000955    0.00000955   -0.00001510
     atom   19 type  1   force =     0.00001214    0.00000000   -0.00001214
     atom   20 type  1   force =     0.00000000    0.00001214   -0.00001214
     atom   21 type  1   force =     0.00000000    0.00001644    0.00000000
     atom   22 type  1   force =     0.00000789    0.00001061   -0.00000000
     atom   23 type  1   force =     0.00000955    0.00001510    0.00000955
     atom   24 type  1   force =    -0.00000000    0.00001061    0.00000789
     atom   25 type  1   force =     0.00000000    0.00001420    0.00001420
     atom   26 type  1   force =     0.00001131    0.00001035    0.00001361
     atom   27 type  1   force =     0.00001131    0.00001361    0.00001035
     atom   28 type  1   force =     0.00000000    0.00000954    0.00000954
     atom   29 type  1   force =     0.00000000    0.00001218    0.00000000
     atom   30 type  1   force =     0.00001287    0.00000958    0.00000000
     atom   31 type  1   force =     0.00001131    0.00001361   -0.00001035
     atom   32 type  1   force =     0.00000000    0.00000954   -0.00000954
     atom   33 type  1   force =     0.00000000    0.00001420   -0.00001420
     atom   34 type  1   force =     0.00001131    0.00001035   -0.00001361
     atom   35 type  1   force =     0.00000955    0.00001510   -0.00000955
     atom   36 type  1   force =     0.00000000    0.00001061   -0.00000789
     atom   37 type  1   force =     0.00000000    0.00000000    0.00000000
     atom   38 type  1   force =     0.00000789   -0.00001061   -0.00000000
     atom   39 type  1   force =     0.00000951    0.00000000    0.00000951
     atom   40 type  1   force =     0.00000000   -0.00001061    0.00000789
     atom   41 type  1   force =     0.00000000    0.00000000    0.00001218
     atom   42 type  1   force =     0.00001131   -0.00001035    0.00001361
     atom   43 type  1   force =     0.00001287    0.00000000    0.00000958
     atom   44 type  1   force =     0.00000000   -0.00000954    0.00000954
     atom   45 type  1   force =     0.00000000    0.00000000    0.00000000
     atom   46 type  1   force =     0.00001287   -0.00000958    0.00000000
     atom   47 type  1   force =     0.00001287   -0.00000000   -0.00000958
     atom   48 type  1   force =     0.00000000   -0.00000954   -0.00000954
     atom   49 type  1   force =     0.00000000    0.00000000   -0.00001218
     atom   50 type  1   force =     0.00001131   -0.00001035   -0.00001361
     atom   51 type  1   force =     0.00000951    0.00000000   -0.00000951
     atom   52 type  1   force =    -0.00000000   -0.00001061   -0.00000789
     atom   53 type  1   force =     0.00000000   -0.00001644   -0.00000000
     atom   54 type  1   force =     0.00001214   -0.00001214    0.00000000
     atom   55 type  1   force =     0.00000955   -0.00001510    0.00000955
     atom   56 type  1   force =     0.00000000   -0.00001214    0.00001214
     atom   57 type  1   force =     0.00000000   -0.00001420    0.00001420
     atom   58 type  1   force =     0.00000955   -0.00000955    0.00001510
     atom   59 type  1   force =     0.00001131   -0.00001361    0.00001035
     atom   60 type  1   force =     0.00000000   -0.00000789    0.00001061
     atom   61 type  1   force =     0.00000000   -0.00001218    0.00000000
     atom   62 type  1   force =     0.00000951   -0.00000951    0.00000000
     atom   63 type  1   force =     0.00001131   -0.00001361   -0.00001035
     atom   64 type  1   force =     0.00000000   -0.00000789   -0.00001061
     atom   65 type  1   force =    -0.00000000   -0.00001420   -0.00001420
     atom   66 type  1   force =     0.00000955   -0.00000955   -0.00001510
     atom   67 type  1   force =     0.00000955   -0.00001510   -0.00000955
     atom   68 type  1   force =    -0.00000000   -0.00001214   -0.00001214
     atom   69 type  1   force =     0.00001420   -0.00000000    0.00001420
     atom   70 type  1   force =     0.00001035    0.00001131    0.00001361
     atom   71 type  1   force =     0.00000954    0.00000000    0.00000954
     atom   72 type  1   force =     0.00001361    0.00001131    0.00001035
     atom   73 type  1   force =     0.00001218    0.00000000    0.00000000
     atom   74 type  1   force =     0.00000958    0.00001287    0.00000000
     atom   75 type  1   force =     0.00000954   -0.00000000   -0.00000954
     atom   76 type  1   force =     0.00001361    0.00001131   -0.00001035
     atom   77 type  1   force =     0.00001420    0.00000000   -0.00001420
     atom   78 type  1   force =     0.00001035    0.00001131   -0.00001361
     atom   79 type  1   force =     0.00001061    0.00000000   -0.00000789
     atom   80 type  1   force =     0.00001510    0.00000955   -0.00000955
     atom   81 type  1   force =     0.00001420    0.00001420   -0.00000000
     atom   82 type  1   force =     0.00000954    0.00000954   -0.00000000
     atom   83 type  1   force =     0.00001035    0.00001361    0.00001131
     atom   84 type  1   force =     0.00001361    0.00001035    0.00001131
     atom   85 type  1   force =     0.00001515    0.00001515    0.00001515
     atom   86 type  1   force =     0.00001054    0.00001054    0.00001681
     atom   87 type  1   force =     0.00001054    0.00001681    0.00001054
     atom   88 type  1   force =     0.00001681    0.00001054    0.00001054
     atom   89 type  1   force =     0.00001556    0.00001556   -0.00000000
     atom   90 type  1   force =     0.00001137    0.00001137    0.00000000
     atom   91 type  1   force =     0.00001054    0.00001681   -0.00001054
     atom   92 type  1   force =     0.00001681    0.00001054   -0.00001054
     atom   93 type  1   force =     0.00001515    0.00001515   -0.00001515
     atom   94 type  1   force =     0.00001054    0.00001054   -0.00001681
     atom   95 type  1   force =     0.00001035    0.00001361   -0.00001131
     atom   96 type  1   force =     0.00001361    0.00001035   -0.00001131
     atom   97 type  1   force =     0.00001218    0.00000000   -0.00000000
     atom   98 type  1   force =     0.00000954   -0.00000954   -0.00000000
     atom   99 type  1   force =     0.00000958    0.00000000    0.00001287
     atom  100 type  1   force =     0.00001361   -0.00001035    0.00001131
     atom  101 type  1   force =     0.00001556   -0.00000000    0.00001556
     atom  102 type  1   force =     0.00001054   -0.00001054    0.00001681
     atom  103 type  1   force =     0.00001137    0.00000000    0.00001137
     atom  104 type  1   force =     0.00001681   -0.00001054    0.00001054
     atom  105 type  1   force =     0.00001730    0.00000000    0.00000000
     atom  106 type  1   force =     0.00001137   -0.00001137   -0.00000000
     atom  107 type  1   force =     0.00001137    0.00000000   -0.00001137
     atom  108 type  1   force =     0.00001681   -0.00001054   -0.00001054
     atom  109 type  1   force =     0.00001556    0.00000000   -0.00001556
     atom  110 type  1   force =     0.00001054   -0.00001054   -0.00001681
     atom  111 type  1   force =     0.00000958    0.00000000   -0.00001287
     atom  112 type  1   force =     0.00001361   -0.00001035   -0.00001131
     atom  113 type  1   force =     0.00001420   -0.00001420   -0.00000000
     atom  114 type  1   force =     0.00001061   -0.00000789    0.00000000
     atom  115 type  1   force =     0.00001035   -0.00001361    0.00001131
     atom  116 type  1   force =     0.00001510   -0.00000955    0.00000955
     atom  117 type  1   force =     0.00001515   -0.00001515    0.00001515
     atom  118 type  1   force =     0.00001035   -0.00001131    0.00001361
     atom  119 type  1   force =     0.00001054   -0.00001681    0.00001054
     atom  120 type  1   force =     0.00001361   -0.00001131    0.00001035
     atom  121 type  1   force =     0.00001556   -0.00001556    0.00000000
     atom  122 type  1   force =     0.00000958   -0.00001287    0.00000000
     atom  123 type  1   force =     0.00001054   -0.00001681   -0.00001054
     atom  124 type  1   force =     0.00001361   -0.00001131   -0.00001035
     atom  125 type  1   force =     0.00001515   -0.00001515   -0.00001515
     atom  126 type  1   force =     0.00001035   -0.00001131   -0.00001361
     atom  127 type  1   force =     0.00001035   -0.00001361   -0.00001131
     atom  128 type  1   force =     0.00001510   -0.00000955   -0.00000955
     atom  129 type  1   force =     0.00000000    0.00000000    0.00000000
     atom  130 type  1   force =    -0.00001061    0.00000789   -0.00000000
     atom  131 type  1   force =    -0.00001061   -0.00000000    0.00000789
     atom  132 type  1   force =     0.00000000    0.00000951    0.00000951
     atom  133 type  1   force =     0.00000000    0.00000000    0.00001218
     atom  134 type  1   force =    -0.00001035    0.00001131    0.00001361
     atom  135 type  1   force =    -0.00000954    0.00000000    0.00000954
     atom  136 type  1   force =     0.00000000    0.00001287    0.00000958
     atom  137 type  1   force =     0.00000000    0.00000000    0.00000000
     atom  138 type  1   force =    -0.00000958    0.00001287    0.00000000
     atom  139 type  1   force =    -0.00000954   -0.00000000   -0.00000954
     atom  140 type  1   force =    -0.00000000    0.00001287   -0.00000958
     atom  141 type  1   force =     0.00000000    0.00000000   -0.00001218
     atom  142 type  1   force =    -0.00001035    0.00001131   -0.00001361
     atom  143 type  1   force =    -0.00001061   -0.00000000   -0.00000789
     atom  144 type  1   force =    -0.00000000    0.00000951   -0.00000951
     atom  145 type  1   force =     0.00000000    0.00001218    0.00000000
     atom  146 type  1   force =    -0.00000954    0.00000954    0.00000000
     atom  147 type  1   force =    -0.00001035    0.00001361    0.00001131
     atom  148 type  1   force =    -0.00000000    0.00000958    0.00001287
     atom  149 type  1   force =     0.00000000    0.00001556    0.00001556
     atom  150 type  1   force =    -0.00001054    0.00001054    0.00001681
     atom  151 type  1   force =    -0.00001054    0.00001681    0.00001054
     atom  152 type  1   force =     0.00000000    0.00001137    0.00001137
     atom  153 type  1   force =     0.00000000    0.00001730    0.00000000
     atom  154 type  1   force =    -0.00001137    0.00001137    0.00000000
     atom  155 type  1   force =    -0.00001054    0.00001681   -0.00001054
     atom  156 type  1   force =     0.00000000    0.00001137   -0.00001137
     atom  157 type  1   force =     0.00000000    0.00001556   -0.00001556
     atom  158 type  1   force =    -0.00001054    0.00001054   -0.00001681
     atom  159 type  1   force =    -0.00001035    0.00001361   -0.00001131
     atom  160 type  1   force =    -0.00000000    0.00000958   -0.00001287
     atom  161 type  1   force =     0.00000000    0.00000000    0.00000000
     atom  162 type  1   force =    -0.00000954   -0.00000954   -0.00000000
     atom  163 type  1   force =    -0.00000958    0.00000000    0.00001287
     atom  164 type  1   force =     0.00000000   -0.00000958    0.00001287
     atom  165 type  1   force =     0.00000000    0.00000000    0.00001730
     atom  166 type  1   force =    -0.00001054   -0.00001054    0.00001681
     atom  167 type  1   force =    -0.00001137   -0.00000000    0.00001137
     atom  168 type  1   force =     0.00000000   -0.00001137    0.00001137
     atom  169 type  1   force =     0.00000000    0.00000000    0.00000000
     atom  170 type  1   force =    -0.00001137   -0.00001137    0.00000000
     atom  171 type  1   force =    -0.00001137    0.00000000   -0.00001137
     atom  172 type  1   force =    -0.00000000   -0.00001137   -0.00001137
     atom  173 type  1   force =     0.00000000    0.00000000   -0.00001730
     atom  174 type  1   force =    -0.00001054   -0.00001054   -0.00001681
     atom  175 type  1   force =    -0.00000958    0.00000000   -0.00001287
     atom  176 type  1   force =    -0.00000000   -0.00000958   -0.00001287
     atom  177 type  1   force =    -0.00000000   -0.00001218    0.00000000
     atom  178 type  1   force =    -0.00001061   -0.00000789    0.00000000
     atom  179 type  1   force =    -0.00001035   -0.00001361    0.00001131
     atom  180 type  1   force =     0.00000000   -0.00000951    0.00000951
     atom  181 type  1   force =    -0.00000000   -0.00001556    0.00001556
     atom  182 type  1   force =    -0.00001035   -0.00001131    0.00001361
     atom  183 type  1   force =    -0.00001054   -0.00001681    0.00001054
     atom  184 type  1   force =    -0.00000000   -0.00001287    0.00000958
     atom  185 type  1   force =     0.00000000   -0.00001730    0.00000000
     atom  186 type  1   force =    -0.00000958   -0.00001287    0.00000000
     atom  187 type  1   force =    -0.00001054   -0.00001681   -0.00001054
     atom  188 type  1   force =     0.00000000   -0.00001287   -0.00000958
     atom  189 type  1   force =    -0.00000000   -0.00001556   -0.00001556
     atom  190 type  1   force =    -0.00001035   -0.00001131   -0.00001361
     atom  191 type  1   force =    -0.00001035   -0.00001361   -0.00001131
     atom  192 type  1   force =     0.00000000   -0.00000951   -0.00000951
     atom  193 type  1   force =    -0.00001644    0.00000000    0.00000000
     atom  194 type  1   force =    -0.00001214    0.00001214    0.00000000
     atom  195 type  1   force =    -0.00001214    0.00000000    0.00001214
     atom  196 type  1   force =    -0.00001510    0.00000955    0.00000955
     atom  197 type  1   force =    -0.00001420   -0.00000000    0.00001420
     atom  198 type  1   force =    -0.00000955    0.00000955    0.00001510
     atom  199 type  1   force =    -0.00000789   -0.00000000    0.00001061
     atom  200 type  1   force =    -0.00001361    0.00001131    0.00001035
     atom  201 type  1   force =    -0.00001218   -0.00000000    0.00000000
     atom  202 type  1   force =    -0.00000951    0.00000951    0.00000000
     atom  203 type  1   force =    -0.00000789    0.00000000   -0.00001061
     atom  204 type  1   force =    -0.00001361    0.00001131   -0.00001035
     atom  205 type  1   force =    -0.00001420    0.00000000   -0.00001420
     atom  206 type  1   force =    -0.00000955    0.00000955   -0.00001510
     atom  207 type  1   force =    -0.00001214    0.00000000   -0.00001214
     atom  208 type  1   force =    -0.00001510    0.00000955   -0.00000955
     atom  209 type  1   force =    -0.00001420    0.00001420   -0.00000000
     atom  210 type  1   force =    -0.00000789    0.00001061   -0.00000000
     atom  211 type  1   force =    -0.00000955    0.00001510    0.00000955
     atom  212 type  1   force =    -0.00001361    0.00001035    0.00001131
     atom  213 type  1   force =    -0.00001515    0.00001515    0.00001515
     atom  214 type  1   force =    -0.00001131    0.00001035    0.00001361
     atom  215 type  1   force =    -0.00001131    0.00001361    0.00001035
     atom  216 type  1   force =    -0.00001681    0.00001054    0.00001054
     atom  217 type  1   force =    -0.00001556    0.00001556    0.00000000
     atom  218 type  1   force =    -0.00001287    0.00000958    0.00000000
     atom  219 type  1   force =    -0.00001131    0.00001361   -0.00001035
     atom  220 type  1   force =    -0.00001681    0.00001054   -0.00001054
     atom  221 type  1   force =    -0.00001515    0.00001515   -0.00001515
     atom  222 type  1   force =    -0.00001131    0.00001035   -0.00001361
     atom  223 type  1   force =    -0.00000955    0.00001510   -0.00000955
     atom  224 type  1   force =    -0.00001361    0.00001035   -0.00001131
     atom  225 type  1   force =    -0.00001218    0.00000000    0.00000000
     atom  226 type  1   force =    -0.00000789   -0.00001061   -0.00000000
     atom  227 type  1   force =    -0.00000951    0.00000000    0.00000951
     atom  228 type  1   force =    -0.00001361   -0.00001035    0.00001131
     atom  229 type  1   force =    -0.00001556    0.00000000    0.00001556
     atom  230 type  1   force =    -0.00001131   -0.00001035    0.00001361
     atom  231 type  1   force =    -0.00001287   -0.00000000    0.00000958
     atom  232 type  1   force =    -0.00001681   -0.00001054    0.00001054
     atom  233 type  1   force =    -0.00001730    0.00000000    0.00000000
     atom  234 type  1   force =    -0.00001287   -0.00000958    0.00000000
     atom  235 type  1   force =    -0.00001287    0.00000000   -0.00000958
     atom  236 type  1   force =    -0.00001681   -0.00001054   -0.00001054
     atom  237 type  1   force =    -0.00001556   -0.00000000   -0.00001556
     atom  238 type  1   force =    -0.00001131   -0.00001035   -0.00001361
     atom  239 type  1   force =    -0.00000951    0.00000000   -0.00000951
     atom  240 type  1   force =    -0.00001361   -0.00001035   -0.00001131
     atom  241 type  1   force =    -0.00001420   -0.00001420    0.00000000
     atom  242 type  1   force =    -0.00001214   -0.00001214    0.00000000
     atom  243 type  1   force =    -0.00000955   -0.00001510    0.00000955
     atom  244 type  1   force =    -0.00001510   -0.00000955    0.00000955
     atom  245 type  1   force =    -0.00001515   -0.00001515    0.00001515
     atom  246 type  1   force =    -0.00000955   -0.00000955    0.00001510
     atom  247 type  1   force =    -0.00001131   -0.00001361    0.00001035
     atom  248 type  1   force =    -0.00001361   -0.00001131    0.00001035
     atom  249 type  1   force =    -0.00001556   -0.00001556   -0.00000000
     atom  250 type  1   force =    -0.00000951   -0.00000951    0.00000000
     atom  251 type  1   force =    -0.00001131   -0.00001361   -0.00001035
     atom  252 type  1   force =    -0.00001361   -0.00001131   -0.00001035
     atom  253 type  1   force =    -0.00001515   -0.00001515   -0.00001515
     atom  254 type  1   force =    -0.00000955   -0.00000955   -0.00001510
     atom  255 type  1   force =    -0.00000955   -0.00001510   -0.00000955
     atom  256 type  1   force =    -0.00001510   -0.00000955   -0.00000955

     Total force =     0.000000     Total SCF correction =     0.000000


     entering subroutine stress ...

          total   stress  (Ry/bohr**3)                   (kbar)     P=   66.03
   0.00044885   0.00000000   0.00000000         66.03      0.00      0.00
   0.00000000   0.00044885   0.00000000          0.00     66.03      0.00
   0.00000000   0.00000000   0.00044885          0.00      0.00     66.03


     Writing output data file Pd.256.save
 
     init_run     :     87.33s CPU     88.57s WALL (       1 calls)
     electrons    :   5413.02s CPU   5464.42s WALL (       1 calls)
     forces       :     59.20s CPU     60.01s WALL (       1 calls)
     stress       :    482.51s CPU    483.05s WALL (       1 calls)

     Called by init_run:
     wfcinit      :     83.53s CPU     84.47s WALL (       1 calls)
     potinit      :      0.31s CPU      0.34s WALL (       1 calls)

     Called by electrons:
     c_bands      :   4946.81s CPU   4984.23s WALL (      16 calls)
     sum_band     :    417.15s CPU    420.82s WALL (      16 calls)
     v_of_rho     :      1.00s CPU      1.02s WALL (      16 calls)
     newd         :     37.70s CPU     37.79s WALL (      16 calls)
     mix_rho      :      1.77s CPU      1.79s WALL (      16 calls)

     Called by c_bands:
     init_us_2    :      2.85s CPU      2.91s WALL (      33 calls)
     cegterg      :   4936.85s CPU   4971.91s WALL (      16 calls)

     Called by *egterg:
     h_psi        :   1608.58s CPU   1617.15s WALL (      53 calls)
     s_psi        :    445.96s CPU    450.27s WALL (      53 calls)
     g_psi        :      1.12s CPU      1.10s WALL (      36 calls)
     cdiaghg      :   1432.97s CPU   1438.97s WALL (      51 calls)

     Called by h_psi:
     add_vuspsi   :    443.02s CPU    447.66s WALL (      53 calls)

     General routines
     calbec       :    723.23s CPU    723.89s WALL (      71 calls)
     fft          :     13.50s CPU     13.60s WALL (     235 calls)
     fftw         :    830.12s CPU    834.40s WALL (  276760 calls)
     davcio       :      0.09s CPU      1.34s WALL (       1 calls)
 
     Parallel routines
     fft_scatter  :    664.43s CPU    667.74s WALL (  276995 calls)
 
     PAW routines
     PAW_pot      :      3.58s CPU      3.59s WALL (      16 calls)
     PAW_ddot     :      1.58s CPU      1.59s WALL (     392 calls)
     PAW_symme    :      0.14s CPU      0.14s WALL (      32 calls)
 
     PWSCF        :     1h40m CPU        1h41m WALL

 
   This run was terminated on:  16: 7:14  14Jul2014            

=------------------------------------------------------------------------------=
   JOB DONE.
=------------------------------------------------------------------------------=
Application 9234748 resources: utime ~1599574s, stime ~11367s, Rss ~2281436, inblocks ~4848049, outblocks ~229936443
