
 ========================   JOB MAP   ========================

 Data for node: bb2a3a22	Num procs: 16
 	Process OMPI jobid: [55817,1] Process rank: 0
 	Process OMPI jobid: [55817,1] Process rank: 2
 	Process OMPI jobid: [55817,1] Process rank: 4
 	Process OMPI jobid: [55817,1] Process rank: 6
 	Process OMPI jobid: [55817,1] Process rank: 8
 	Process OMPI jobid: [55817,1] Process rank: 10
 	Process OMPI jobid: [55817,1] Process rank: 12
 	Process OMPI jobid: [55817,1] Process rank: 14
 	Process OMPI jobid: [55817,1] Process rank: 16
 	Process OMPI jobid: [55817,1] Process rank: 18
 	Process OMPI jobid: [55817,1] Process rank: 20
 	Process OMPI jobid: [55817,1] Process rank: 22
 	Process OMPI jobid: [55817,1] Process rank: 24
 	Process OMPI jobid: [55817,1] Process rank: 26
 	Process OMPI jobid: [55817,1] Process rank: 28
 	Process OMPI jobid: [55817,1] Process rank: 30

 Data for node: bb2a3a09	Num procs: 16
 	Process OMPI jobid: [55817,1] Process rank: 1
 	Process OMPI jobid: [55817,1] Process rank: 3
 	Process OMPI jobid: [55817,1] Process rank: 5
 	Process OMPI jobid: [55817,1] Process rank: 7
 	Process OMPI jobid: [55817,1] Process rank: 9
 	Process OMPI jobid: [55817,1] Process rank: 11
 	Process OMPI jobid: [55817,1] Process rank: 13
 	Process OMPI jobid: [55817,1] Process rank: 15
 	Process OMPI jobid: [55817,1] Process rank: 17
 	Process OMPI jobid: [55817,1] Process rank: 19
 	Process OMPI jobid: [55817,1] Process rank: 21
 	Process OMPI jobid: [55817,1] Process rank: 23
 	Process OMPI jobid: [55817,1] Process rank: 25
 	Process OMPI jobid: [55817,1] Process rank: 27
 	Process OMPI jobid: [55817,1] Process rank: 29
 	Process OMPI jobid: [55817,1] Process rank: 31

 =============================================================

     Program PWSCF v.5.0.2 (svn rev. 9392) starts on 20Oct2013 at  3: 7:23 

     This program is part of the open-source Quantum ESPRESSO suite
     for quantum simulation of materials; please cite
         "P. Giannozzi et al., J. Phys.:Condens. Matter 21 395502 (2009);
          URL http://www.quantum-espresso.org", 
     in publications or presentations arising from this work. More details at
     http://www.quantum-espresso.org/quote.php

     Parallel version (MPI), running on    32 processors
     R & G space division:  proc/nbgrp/npool/nimage =      32

     Current dimensions of program PWSCF are:
     Max number of different atomic species (ntypx) = 10
     Max number of k-points (npk) =  40000
     Max angular momentum in pseudopotentials (lmaxx) =  3
     Reading input from /gpfs/bb/bxp912/pwscf/input_4e90da7b2f87d_427c.in
Warning: card &IONS ignored
Warning: card ION_DYNAMICS='BFGS', ignored
Warning: card / ignored
Warning: card &CELL ignored
Warning: card CELL_DYNAMICS='BFGS', ignored
Warning: card PRESS=0.0, ignored
Warning: card CELL_FACTOR=2.0, ignored
Warning: card / ignored
               file Al.pbe-n-kjpaw_psl.0.1.UPF: wavefunction(s)  3S renormalized

     Subspace diagonalization in iterative solution of the eigenvalue problem:
     a serial algorithm will be used

 
     Parallelization info
     --------------------
     sticks:   dense  smooth     PW     G-vecs:    dense   smooth      PW
     Min         481     324     84                44979    24827    3248
     Max         483     325     85                44982    24855    3250
     Sum       15421   10389   2693              1439361   794839  103959
 


     bravais-lattice index     =           14
     lattice parameter (alat)  =      30.5130  a.u.
     unit-cell volume          =   28409.0236 (a.u.)^3
     number of atoms/cell      =          256
     number of atomic types    =            1
     number of electrons       =       768.00
     number of Kohn-Sham states=          461
     kinetic-energy cutoff     =      35.0000  Ry
     charge density cutoff     =     208.0000  Ry
     convergence threshold     =      1.0E-07
     mixing beta               =       0.7000
     number of iterations used =            8  local-TF  mixing
     Exchange-correlation      =  SLA  PW   PBX  PBC ( 1 4 3 4 0)
     EXX-fraction              =        0.00

     celldm(1)=  30.513037  celldm(2)=   1.000000  celldm(3)=   1.000000
     celldm(4)=   0.000000  celldm(5)=   0.000000  celldm(6)=   0.000000

     crystal axes: (cart. coord. in units of alat)
               a(1) = (   1.000000   0.000000   0.000000 )  
               a(2) = (   0.000000   1.000000   0.000000 )  
               a(3) = (   0.000000   0.000000   1.000000 )  

     reciprocal axes: (cart. coord. in units 2 pi/alat)
               b(1) = (  1.000000  0.000000  0.000000 )  
               b(2) = (  0.000000  1.000000  0.000000 )  
               b(3) = (  0.000000  0.000000  1.000000 )  


     PseudoPot. # 1 for Al read from file:
     /gpfs/bb/bxp912/pseudopotentials/Al.pbe-n-kjpaw_psl.0.1.UPF
     MD5 check sum: c290c600b2b3f4e95cb15d62bc64d19d
     Pseudo is Projector augmented-wave + core cor, Zval =  3.0
     Generated using "atomic" code by A. Dal Corso  v.5.0.2 svn rev. 9392
     Shape of augmentation charge: PSQ
     Using radial grid of 1135 points,  4 beta functions with: 
                l(1) =   0
                l(2) =   0
                l(3) =   1
                l(4) =   1
     Q(r) pseudized with 0 coefficients 


     atomic species   valence    mass     pseudopotential
        N              3.00    26.98154     Al( 1.00)

     No symmetry found



   Cartesian axes

     site n.     atom                  positions (alat units)
         1           N   tau(   1) = (   0.0074680   0.0106980   0.9788330  )
         2           N   tau(   2) = (   0.1216190   0.1194070   0.0140290  )
         3           N   tau(   3) = (   0.1319630   0.0155350   0.1162800  )
         4           N   tau(   4) = (   0.9868440   0.1373380   0.1381550  )
         5           N   tau(   5) = (   0.2395630   0.0091130   0.0074860  )
         6           N   tau(   6) = (   0.2669430   0.1363670   0.1280350  )
         7           N   tau(   7) = (   0.3783480   0.1305620   0.0131820  )
         8           N   tau(   8) = (   0.3677440   0.9780730   0.1082240  )
         9           N   tau(   9) = (   0.0202850   0.0155720   0.2604210  )
        10           N   tau(  10) = (   0.1329590   0.1163060   0.2451430  )
        11           N   tau(  11) = (   0.1043740   0.9969030   0.3788340  )
        12           N   tau(  12) = (   0.0160940   0.1315370   0.3661400  )
        13           N   tau(  13) = (   0.9857260   0.9870300   0.4884230  )
        14           N   tau(  14) = (   0.1422590   0.1396530   0.5170330  )
        15           N   tau(  15) = (   0.1418610   0.0222670   0.6394560  )
        16           N   tau(  16) = (   0.0141480   0.1035100   0.6041690  )
        17           N   tau(  17) = (   0.9828280   0.9954860   0.7385420  )
        18           N   tau(  18) = (   0.1413300   0.1525610   0.7648670  )
        19           N   tau(  19) = (   0.1390850   0.0187160   0.8974950  )
        20           N   tau(  20) = (   0.9904770   0.1109160   0.8917070  )
        21           N   tau(  21) = (   0.0085840   0.2681230   0.0036370  )
        22           N   tau(  22) = (   0.1186940   0.3664840   0.0179000  )
        23           N   tau(  23) = (   0.1095110   0.2282690   0.1058530  )
        24           N   tau(  24) = (   0.9944620   0.3768990   0.1081910  )
        25           N   tau(  25) = (   0.9871740   0.2638580   0.2601370  )
        26           N   tau(  26) = (   0.1362200   0.3582470   0.2724060  )
        27           N   tau(  27) = (   0.0990130   0.2645550   0.3847160  )
        28           N   tau(  28) = (   0.0033770   0.4043790   0.3583210  )
        29           N   tau(  29) = (   0.9876140   0.2416240   0.4800990  )
        30           N   tau(  30) = (   0.1366340   0.3811720   0.5137690  )
        31           N   tau(  31) = (   0.1135910   0.2581930   0.6343340  )
        32           N   tau(  32) = (   0.0032290   0.3834950   0.6116650  )
        33           N   tau(  33) = (   0.9941800   0.2332520   0.7636390  )
        34           N   tau(  34) = (   0.0986230   0.3850830   0.7654030  )
        35           N   tau(  35) = (   0.1337390   0.2651610   0.8833650  )
        36           N   tau(  36) = (   0.0036970   0.3653030   0.8761160  )
        37           N   tau(  37) = (   0.9872740   0.5031110   0.9830790  )
        38           N   tau(  38) = (   0.1125880   0.6168850   0.0034970  )
        39           N   tau(  39) = (   0.1071610   0.5023470   0.1333360  )
        40           N   tau(  40) = (   0.9889780   0.6031470   0.1296330  )
        41           N   tau(  41) = (   0.0106680   0.5274710   0.2379020  )
        42           N   tau(  42) = (   0.1125850   0.6278660   0.2268120  )
        43           N   tau(  43) = (   0.1179370   0.5159140   0.3581000  )
        44           N   tau(  44) = (   0.9901010   0.6068930   0.3916840  )
        45           N   tau(  45) = (   0.0054140   0.5157410   0.5091990  )
        46           N   tau(  46) = (   0.1174520   0.5970530   0.5133170  )
        47           N   tau(  47) = (   0.1318320   0.5130440   0.6407320  )
        48           N   tau(  48) = (   0.9968090   0.5979810   0.6143650  )
        49           N   tau(  49) = (   0.9874460   0.4917100   0.7572980  )
        50           N   tau(  50) = (   0.1359440   0.6325640   0.7603490  )
        51           N   tau(  51) = (   0.0981390   0.4903420   0.8541000  )
        52           N   tau(  52) = (   0.9890390   0.6292430   0.8841810  )
        53           N   tau(  53) = (   0.9877220   0.7661050   0.9940680  )
        54           N   tau(  54) = (   0.1323670   0.8473940   0.9965510  )
        55           N   tau(  55) = (   0.1380030   0.7367950   0.1101270  )
        56           N   tau(  56) = (   0.9896750   0.8603330   0.1115590  )
        57           N   tau(  57) = (   0.9834290   0.7643310   0.2461670  )
        58           N   tau(  58) = (   0.1109240   0.8652330   0.2546780  )
        59           N   tau(  59) = (   0.1129900   0.7575380   0.3951910  )
        60           N   tau(  60) = (   0.0155900   0.8933230   0.3827560  )
        61           N   tau(  61) = (   0.0081330   0.7448440   0.4889180  )
        62           N   tau(  62) = (   0.1134480   0.8920330   0.5027900  )
        63           N   tau(  63) = (   0.1200670   0.7392870   0.6271150  )
        64           N   tau(  64) = (   0.9973450   0.8543440   0.6273680  )
        65           N   tau(  65) = (   0.9867010   0.7434760   0.7518070  )
        66           N   tau(  66) = (   0.1457100   0.8801550   0.7573790  )
        67           N   tau(  67) = (   0.1088950   0.7323660   0.8946160  )
        68           N   tau(  68) = (   0.9910740   0.8633310   0.8638580  )
        69           N   tau(  69) = (   0.2414610   0.0032630   0.2673770  )
        70           N   tau(  70) = (   0.3986090   0.1432400   0.2670550  )
        71           N   tau(  71) = (   0.3618000   0.9948430   0.3603770  )
        72           N   tau(  72) = (   0.2582640   0.1292940   0.3954130  )
        73           N   tau(  73) = (   0.2283040   0.0219740   0.5263980  )
        74           N   tau(  74) = (   0.3971860   0.1452040   0.4888670  )
        75           N   tau(  75) = (   0.3719310   0.0017500   0.6127050  )
        76           N   tau(  76) = (   0.2348380   0.1356200   0.6065420  )
        77           N   tau(  77) = (   0.2561150   0.0112850   0.7564010  )
        78           N   tau(  78) = (   0.3816920   0.1376480   0.7615870  )
        79           N   tau(  79) = (   0.3634930   0.0177960   0.8846150  )
        80           N   tau(  80) = (   0.2508280   0.1396280   0.8829790  )
        81           N   tau(  81) = (   0.2679490   0.2415660   0.0169820  )
        82           N   tau(  82) = (   0.3837660   0.3678690   0.9934580  )
        83           N   tau(  83) = (   0.3804180   0.2617740   0.1131500  )
        84           N   tau(  84) = (   0.2431890   0.3650150   0.1341660  )
        85           N   tau(  85) = (   0.2422670   0.2562780   0.2404700  )
        86           N   tau(  86) = (   0.3796560   0.3852290   0.2600510  )
        87           N   tau(  87) = (   0.3871040   0.2452910   0.3631320  )
        88           N   tau(  88) = (   0.2557740   0.3596760   0.3660650  )
        89           N   tau(  89) = (   0.2643430   0.2436210   0.5124250  )
        90           N   tau(  90) = (   0.3571210   0.3546670   0.4842290  )
        91           N   tau(  91) = (   0.3855720   0.2398300   0.6180150  )
        92           N   tau(  92) = (   0.2488730   0.3629550   0.6364290  )
        93           N   tau(  93) = (   0.2602540   0.2352430   0.7582200  )
        94           N   tau(  94) = (   0.3666360   0.3627350   0.7758080  )
        95           N   tau(  95) = (   0.3761240   0.2300660   0.8586190  )
        96           N   tau(  96) = (   0.2449830   0.3849260   0.8743360  )
        97           N   tau(  97) = (   0.2411780   0.5091360   0.9949480  )
        98           N   tau(  98) = (   0.3551860   0.6140000   0.9859280  )
        99           N   tau(  99) = (   0.3629610   0.4851130   0.1351550  )
       100           N   tau( 100) = (   0.2451540   0.6350420   0.1167410  )
       101           N   tau( 101) = (   0.2626050   0.5084690   0.2269860  )
       102           N   tau( 102) = (   0.3875070   0.6336500   0.2456640  )
       103           N   tau( 103) = (   0.3906160   0.4745660   0.3863070  )
       104           N   tau( 104) = (   0.2285800   0.6130080   0.3724480  )
       105           N   tau( 105) = (   0.2432650   0.5088640   0.4950240  )
       106           N   tau( 106) = (   0.3587360   0.6229390   0.5135700  )
       107           N   tau( 107) = (   0.3659100   0.5067140   0.6226130  )
       108           N   tau( 108) = (   0.2541490   0.6175770   0.6460610  )
       109           N   tau( 109) = (   0.2358560   0.4844620   0.7594350  )
       110           N   tau( 110) = (   0.3714640   0.6045760   0.7559280  )
       111           N   tau( 111) = (   0.3370330   0.4853740   0.8980360  )
       112           N   tau( 112) = (   0.2765470   0.6351570   0.8973990  )
       113           N   tau( 113) = (   0.2611650   0.7559800   0.9969940  )
       114           N   tau( 114) = (   0.3854010   0.8556850   0.0185590  )
       115           N   tau( 115) = (   0.3945360   0.7329420   0.1171120  )
       116           N   tau( 116) = (   0.2340510   0.8935910   0.1332240  )
       117           N   tau( 117) = (   0.2357990   0.7520100   0.2605990  )
       118           N   tau( 118) = (   0.3637440   0.8513000   0.2364960  )
       119           N   tau( 119) = (   0.3597410   0.7646940   0.3696230  )
       120           N   tau( 120) = (   0.2663530   0.8654940   0.3591840  )
       121           N   tau( 121) = (   0.2393700   0.7713480   0.5182230  )
       122           N   tau( 122) = (   0.3760960   0.8858010   0.5114920  )
       123           N   tau( 123) = (   0.3491500   0.7329760   0.6117280  )
       124           N   tau( 124) = (   0.2709330   0.8847670   0.6068800  )
       125           N   tau( 125) = (   0.2475300   0.7382220   0.7531280  )
       126           N   tau( 126) = (   0.3772280   0.8894380   0.7337390  )
       127           N   tau( 127) = (   0.3797480   0.7284290   0.8579710  )
       128           N   tau( 128) = (   0.2604410   0.8659140   0.8891850  )
       129           N   tau( 129) = (   0.4873840   0.9933750   0.9961630  )
       130           N   tau( 130) = (   0.6358030   0.1375880   0.9883170  )
       131           N   tau( 131) = (   0.6191710   0.9960700   0.1142110  )
       132           N   tau( 132) = (   0.4922260   0.1124120   0.1295010  )
       133           N   tau( 133) = (   0.5126170   0.9970490   0.2344420  )
       134           N   tau( 134) = (   0.6067550   0.1316700   0.2562760  )
       135           N   tau( 135) = (   0.6264960   0.9903630   0.3621310  )
       136           N   tau( 136) = (   0.4942330   0.1151360   0.3871660  )
       137           N   tau( 137) = (   0.4973210   0.9903160   0.4757710  )
       138           N   tau( 138) = (   0.6462320   0.1545120   0.4901770  )
       139           N   tau( 139) = (   0.6111910   0.0237000   0.6182970  )
       140           N   tau( 140) = (   0.5042010   0.1413970   0.6421600  )
       141           N   tau( 141) = (   0.5088160   0.9979050   0.7442720  )
       142           N   tau( 142) = (   0.6126460   0.1339210   0.7328810  )
       143           N   tau( 143) = (   0.6347570   0.9828330   0.8885680  )
       144           N   tau( 144) = (   0.5033610   0.1342340   0.8725210  )
       145           N   tau( 145) = (   0.4951020   0.2669100   0.9869960  )
       146           N   tau( 146) = (   0.6192020   0.3639810   0.0135360  )
       147           N   tau( 147) = (   0.6090220   0.2677460   0.1279210  )
       148           N   tau( 148) = (   0.4911440   0.3821570   0.1425700  )
       149           N   tau( 149) = (   0.4924340   0.2470050   0.2309890  )
       150           N   tau( 150) = (   0.6305820   0.3685310   0.2320240  )
       151           N   tau( 151) = (   0.6142960   0.2354680   0.3696710  )
       152           N   tau( 152) = (   0.5117320   0.3651270   0.3965810  )
       153           N   tau( 153) = (   0.5195600   0.2694120   0.5088210  )
       154           N   tau( 154) = (   0.6032580   0.3636370   0.4939520  )
       155           N   tau( 155) = (   0.6271990   0.2577680   0.6319820  )
       156           N   tau( 156) = (   0.5267660   0.3731120   0.6124760  )
       157           N   tau( 157) = (   0.5204480   0.2508190   0.7589740  )
       158           N   tau( 158) = (   0.6097010   0.3803410   0.7422030  )
       159           N   tau( 159) = (   0.6311460   0.2523130   0.8699930  )
       160           N   tau( 160) = (   0.5253050   0.3868590   0.8843550  )
       161           N   tau( 161) = (   0.4918690   0.5096730   0.0245540  )
       162           N   tau( 162) = (   0.6140790   0.5997970   0.0043300  )
       163           N   tau( 163) = (   0.6344220   0.4886720   0.1337310  )
       164           N   tau( 164) = (   0.4757930   0.6466360   0.1195760  )
       165           N   tau( 165) = (   0.5060360   0.5059710   0.2412870  )
       166           N   tau( 166) = (   0.6150110   0.6057130   0.2287020  )
       167           N   tau( 167) = (   0.6098280   0.5139600   0.3571090  )
       168           N   tau( 168) = (   0.4768370   0.6366250   0.3894510  )
       169           N   tau( 169) = (   0.4944900   0.4916020   0.5129500  )
       170           N   tau( 170) = (   0.6286990   0.6127110   0.5102020  )
       171           N   tau( 171) = (   0.6084170   0.4891770   0.6120980  )
       172           N   tau( 172) = (   0.5098890   0.6402090   0.6460340  )
       173           N   tau( 173) = (   0.5159870   0.4857010   0.7571820  )
       174           N   tau( 174) = (   0.6270470   0.6457100   0.7603170  )
       175           N   tau( 175) = (   0.6416950   0.5063900   0.8906970  )
       176           N   tau( 176) = (   0.4947700   0.6349240   0.8719010  )
       177           N   tau( 177) = (   0.4780120   0.7567260   0.9891820  )
       178           N   tau( 178) = (   0.6290800   0.8972130   0.9902730  )
       179           N   tau( 179) = (   0.6262940   0.7619550   0.1091440  )
       180           N   tau( 180) = (   0.4908560   0.8851430   0.1083670  )
       181           N   tau( 181) = (   0.5049820   0.7370820   0.2390960  )
       182           N   tau( 182) = (   0.6139090   0.8780820   0.2250720  )
       183           N   tau( 183) = (   0.6417690   0.7645620   0.3582230  )
       184           N   tau( 184) = (   0.5182980   0.8644270   0.3895840  )
       185           N   tau( 185) = (   0.5075230   0.7362580   0.4878360  )
       186           N   tau( 186) = (   0.6418700   0.8676380   0.5055990  )
       187           N   tau( 187) = (   0.6014460   0.7469820   0.6171300  )
       188           N   tau( 188) = (   0.4886770   0.8776660   0.6403310  )
       189           N   tau( 189) = (   0.4941460   0.7372980   0.7312730  )
       190           N   tau( 190) = (   0.6411670   0.8817710   0.7659980  )
       191           N   tau( 191) = (   0.6094690   0.7595650   0.8568980  )
       192           N   tau( 192) = (   0.4860220   0.8700190   0.8588800  )
       193           N   tau( 193) = (   0.7648470   0.0101760   0.9910930  )
       194           N   tau( 194) = (   0.8866530   0.1385210   0.0038250  )
       195           N   tau( 195) = (   0.8826720   0.9882390   0.1304960  )
       196           N   tau( 196) = (   0.7564430   0.1094410   0.1076280  )
       197           N   tau( 197) = (   0.7462840   0.0076020   0.2538220  )
       198           N   tau( 198) = (   0.8620730   0.1187240   0.2392150  )
       199           N   tau( 199) = (   0.8713080   0.9692680   0.3469480  )
       200           N   tau( 200) = (   0.7543670   0.1448830   0.3595850  )
       201           N   tau( 201) = (   0.7682610   0.9807730   0.4892780  )
       202           N   tau( 202) = (   0.8729480   0.1228100   0.5152480  )
       203           N   tau( 203) = (   0.8825860   0.0189000   0.6321240  )
       204           N   tau( 204) = (   0.7733800   0.1318160   0.6000920  )
       205           N   tau( 205) = (   0.7796630   0.0104900   0.7357800  )
       206           N   tau( 206) = (   0.8945080   0.1254480   0.7245730  )
       207           N   tau( 207) = (   0.8836930   0.9761280   0.8826410  )
       208           N   tau( 208) = (   0.7393560   0.1042840   0.8981860  )
       209           N   tau( 209) = (   0.7624320   0.2399380   0.9822500  )
       210           N   tau( 210) = (   0.8982690   0.3649220   0.0141010  )
       211           N   tau( 211) = (   0.8863490   0.2614660   0.1311860  )
       212           N   tau( 212) = (   0.7721510   0.3854990   0.1062630  )
       213           N   tau( 213) = (   0.7384710   0.2563010   0.2621940  )
       214           N   tau( 214) = (   0.8863640   0.4027970   0.2318220  )
       215           N   tau( 215) = (   0.8678580   0.2373130   0.3704560  )
       216           N   tau( 216) = (   0.7646440   0.3602400   0.3781590  )
       217           N   tau( 217) = (   0.7367950   0.2411090   0.5184820  )
       218           N   tau( 218) = (   0.8901450   0.3853270   0.4850530  )
       219           N   tau( 219) = (   0.8479150   0.2503690   0.6229220  )
       220           N   tau( 220) = (   0.7339190   0.3876500   0.6451960  )
       221           N   tau( 221) = (   0.7388800   0.2429210   0.7648330  )
       222           N   tau( 222) = (   0.9006150   0.3822830   0.7576640  )
       223           N   tau( 223) = (   0.8858100   0.2406190   0.8570780  )
       224           N   tau( 224) = (   0.7677670   0.3687540   0.8588800  )
       225           N   tau( 225) = (   0.7636000   0.5108530   0.0162090  )
       226           N   tau( 226) = (   0.8930230   0.6442300   0.0087320  )
       227           N   tau( 227) = (   0.8666400   0.5168630   0.1120390  )
       228           N   tau( 228) = (   0.7631640   0.6494860   0.1049290  )
       229           N   tau( 229) = (   0.7241860   0.4878290   0.2610120  )
       230           N   tau( 230) = (   0.8841170   0.6405870   0.2430940  )
       231           N   tau( 231) = (   0.8795920   0.5140380   0.3721550  )
       232           N   tau( 232) = (   0.7390250   0.6321040   0.3949180  )
       233           N   tau( 233) = (   0.7428710   0.5179980   0.5097370  )
       234           N   tau( 234) = (   0.8523040   0.6339310   0.5114910  )
       235           N   tau( 235) = (   0.8595360   0.4808050   0.6386940  )
       236           N   tau( 236) = (   0.7689870   0.6212240   0.6395140  )
       237           N   tau( 237) = (   0.7601970   0.5108200   0.7413050  )
       238           N   tau( 238) = (   0.8854330   0.6084090   0.7658150  )
       239           N   tau( 239) = (   0.8960260   0.4887840   0.8792050  )
       240           N   tau( 240) = (   0.7492610   0.6077670   0.8686440  )
       241           N   tau( 241) = (   0.7713670   0.7543540   0.9885670  )
       242           N   tau( 242) = (   0.8710430   0.8556810   0.9879920  )
       243           N   tau( 243) = (   0.8936360   0.7344990   0.1191920  )
       244           N   tau( 244) = (   0.7654410   0.8782180   0.1328430  )
       245           N   tau( 245) = (   0.7549080   0.7723250   0.2451310  )
       246           N   tau( 246) = (   0.8829140   0.8800150   0.2774050  )
       247           N   tau( 247) = (   0.8703860   0.7614910   0.3620030  )
       248           N   tau( 248) = (   0.7452590   0.8980860   0.3490440  )
       249           N   tau( 249) = (   0.7570220   0.7446980   0.5186800  )
       250           N   tau( 250) = (   0.8851750   0.8602430   0.5186920  )
       251           N   tau( 251) = (   0.8645390   0.7675320   0.6140010  )
       252           N   tau( 252) = (   0.7445580   0.8566750   0.6132080  )
       253           N   tau( 253) = (   0.7638700   0.7326520   0.7396790  )
       254           N   tau( 254) = (   0.8608260   0.8648020   0.7285230  )
       255           N   tau( 255) = (   0.8809210   0.7560960   0.8609800  )
       256           N   tau( 256) = (   0.7364750   0.8793370   0.8882950  )

     number of k points=     4  Marzari-Vanderbilt smearing, width (Ry)=  0.0500
                       cart. coord. in units 2pi/alat
        k(    1) = (   0.2500000   0.2500000   0.2500000), wk =   0.5000000
        k(    2) = (  -0.2500000  -0.2500000   0.2500000), wk =   0.5000000
        k(    3) = (  -0.2500000   0.2500000  -0.2500000), wk =   0.5000000
        k(    4) = (   0.2500000  -0.2500000  -0.2500000), wk =   0.5000000

     Dense  grid:  1439361 G-vectors     FFT dimensions: ( 144, 144, 144)

     Smooth grid:   794839 G-vectors     FFT dimensions: ( 120, 120, 120)

     Largest allocated arrays     est. size (Mb)     dimensions
        Kohn-Sham Wavefunctions        21.93 Mb     (   3117,  461)
        NL pseudopotentials            97.41 Mb     (   3117, 2048)
        Each V/rho on FFT grid          1.58 Mb     ( 103680)
        Each G-vector array             0.34 Mb     (  44980)
        G-vector shells                 0.03 Mb     (   3845)
     Largest temporary arrays     est. size (Mb)     dimensions
        Auxiliary wavefunctions        87.70 Mb     (   3117, 1844)
        Each subspace H/S matrix       51.89 Mb     (1844,1844)
        Each <psi_i|beta_j> matrix     14.41 Mb     (   2048,  461)
        Arrays for rho mixing          12.66 Mb     ( 103680,   8)

     Check: negative/imaginary core charge=   -0.000006    0.000000

     Initial potential from superposition of free atoms

     starting charge  767.41368, renormalised to  768.00000
     Starting wfc are 1024 randomized atomic wfcs
     Checking if some PAW data can be deallocated... 

     total cpu time spent up to now is       84.0 secs

     Self-consistent Calculation

     iteration #  1     ecut=    35.00 Ry     beta=0.70
     Davidson diagonalization with overlap
     ethr =  1.00E-02,  avg # of iterations =  3.0

     total cpu time spent up to now is      247.4 secs

     total energy              =  -10104.34238637 Ry
     Harris-Foulkes estimate   =  -10106.37146548 Ry
     estimated scf accuracy    <       8.81531831 Ry

     iteration #  2     ecut=    35.00 Ry     beta=0.70
     Davidson diagonalization with overlap
     ethr =  1.15E-03,  avg # of iterations =  2.0

     total cpu time spent up to now is      350.4 secs

     total energy              =  -10104.05786807 Ry
     Harris-Foulkes estimate   =  -10105.01322724 Ry
     estimated scf accuracy    <       2.29478870 Ry

     iteration #  3     ecut=    35.00 Ry     beta=0.70
     Davidson diagonalization with overlap
     ethr =  2.99E-04,  avg # of iterations =  5.2

     total cpu time spent up to now is      566.0 secs

     total energy              =  -10104.76179193 Ry
     Harris-Foulkes estimate   =  -10104.85229426 Ry
     estimated scf accuracy    <       0.57637379 Ry

     iteration #  4     ecut=    35.00 Ry     beta=0.70
     Davidson diagonalization with overlap
     ethr =  7.50E-05,  avg # of iterations =  3.0

     total cpu time spent up to now is      675.3 secs

     total energy              =  -10104.71537611 Ry
     Harris-Foulkes estimate   =  -10104.78869329 Ry
     estimated scf accuracy    <       0.21745634 Ry

     iteration #  5     ecut=    35.00 Ry     beta=0.70
     Davidson diagonalization with overlap
     ethr =  2.83E-05,  avg # of iterations = 11.8

     total cpu time spent up to now is      961.8 secs

     total energy              =  -10104.76721348 Ry
     Harris-Foulkes estimate   =  -10104.77294428 Ry
     estimated scf accuracy    <       0.03948159 Ry

     iteration #  6     ecut=    35.00 Ry     beta=0.70
     Davidson diagonalization with overlap
     ethr =  5.14E-06,  avg # of iterations =  6.5

     total cpu time spent up to now is     1109.7 secs

     total energy              =  -10104.76588318 Ry
     Harris-Foulkes estimate   =  -10104.76966940 Ry
     estimated scf accuracy    <       0.01276328 Ry

     iteration #  7     ecut=    35.00 Ry     beta=0.70
     Davidson diagonalization with overlap
     ethr =  1.66E-06,  avg # of iterations =  9.8

     total cpu time spent up to now is     1386.0 secs

     total energy              =  -10104.76878772 Ry
     Harris-Foulkes estimate   =  -10104.76923376 Ry
     estimated scf accuracy    <       0.00233696 Ry

     iteration #  8     ecut=    35.00 Ry     beta=0.70
     Davidson diagonalization with overlap
     ethr =  3.04E-07,  avg # of iterations =  3.2

     total cpu time spent up to now is     1501.7 secs

     total energy              =  -10104.76893735 Ry
     Harris-Foulkes estimate   =  -10104.76902244 Ry
     estimated scf accuracy    <       0.00029495 Ry

     iteration #  9     ecut=    35.00 Ry     beta=0.70
     Davidson diagonalization with overlap
     ethr =  3.84E-08,  avg # of iterations =  5.0

     total cpu time spent up to now is     1735.4 secs

     total energy              =  -10104.76905861 Ry
     Harris-Foulkes estimate   =  -10104.76907781 Ry
     estimated scf accuracy    <       0.00017452 Ry

     iteration # 10     ecut=    35.00 Ry     beta=0.70
     Davidson diagonalization with overlap
     ethr =  2.27E-08,  avg # of iterations =  1.0

     total cpu time spent up to now is     1827.1 secs

     total energy              =  -10104.76904878 Ry
     Harris-Foulkes estimate   =  -10104.76906301 Ry
     estimated scf accuracy    <       0.00006539 Ry

     iteration # 11     ecut=    35.00 Ry     beta=0.70
     Davidson diagonalization with overlap
     ethr =  8.51E-09,  avg # of iterations =  3.0

     total cpu time spent up to now is     1951.4 secs

     End of self-consistent calculation

          k = 0.2500 0.2500 0.2500 ( 99252 PWs)   bands (ev):

    -3.5595  -3.4005  -3.2599  -3.1763  -3.0982  -3.0034  -2.9284  -2.8559
    -2.7262  -2.6792  -2.6404  -2.5628  -2.5244  -2.4621  -2.4145  -2.3051
    -2.2615  -2.1801  -2.0986  -2.0605  -2.0410  -1.9196  -1.8830  -1.8308
    -1.7925  -1.7700  -1.7116  -1.6240  -1.5510  -1.5284  -1.5138  -1.4712
    -1.4255  -1.4166  -1.3015  -1.2731  -1.1828  -1.1393  -1.0965  -1.0634
    -1.0344  -0.9470  -0.8997  -0.8915  -0.7979  -0.7444  -0.7120  -0.6900
    -0.6319  -0.6135  -0.5795  -0.5524  -0.4652  -0.4408  -0.4080  -0.3722
    -0.3268  -0.3050  -0.2638  -0.2157  -0.1741  -0.1486  -0.1243  -0.0608
    -0.0494   0.0072   0.0463   0.0870   0.1079   0.1455   0.1899   0.2089
     0.2690   0.3018   0.3327   0.3890   0.4197   0.4641   0.4891   0.5366
     0.5758   0.6136   0.6371   0.6755   0.7082   0.7439   0.7838   0.8106
     0.8423   0.8506   0.8965   0.9659   0.9908   1.0233   1.0373   1.0766
     1.0982   1.1140   1.1833   1.1867   1.2192   1.2444   1.2845   1.3132
     1.3281   1.3571   1.4013   1.4357   1.4710   1.4913   1.5391   1.5592
     1.5682   1.5809   1.6089   1.6369   1.6976   1.7209   1.7505   1.7823
     1.8357   1.8783   1.8932   1.9139   1.9398   1.9892   2.0121   2.0302
     2.0603   2.0912   2.1273   2.1635   2.1856   2.2144   2.2553   2.2903
     2.3228   2.3419   2.3837   2.3994   2.4330   2.4504   2.4658   2.4963
     2.5423   2.5543   2.5791   2.6091   2.6235   2.6623   2.7093   2.7348
     2.7387   2.7740   2.7958   2.8061   2.8225   2.8678   2.8719   2.9021
     2.9121   2.9460   2.9651   2.9836   3.0127   3.0471   3.0739   3.0976
     3.1271   3.1545   3.1701   3.2190   3.2254   3.2495   3.2766   3.2914
     3.3122   3.3430   3.4070   3.4111   3.4451   3.4552   3.4750   3.5084
     3.5361   3.5557   3.6032   3.6164   3.6389   3.6608   3.6829   3.7058
     3.7264   3.7716   3.8023   3.8183   3.8374   3.8790   3.8883   3.9178
     3.9282   3.9529   3.9875   3.9962   4.0286   4.0565   4.0797   4.0955
     4.1177   4.1375   4.1493   4.1558   4.1959   4.2392   4.2574   4.2779
     4.2930   4.3294   4.3457   4.3553   4.3924   4.4054   4.4198   4.4418
     4.4642   4.4920   4.5134   4.5266   4.5656   4.5784   4.6000   4.6193
     4.6318   4.6594   4.6969   4.7052   4.7394   4.7558   4.7787   4.8005
     4.8203   4.8629   4.8817   4.9001   4.9282   4.9394   4.9571   4.9922
     5.0067   5.0305   5.0631   5.0770   5.0979   5.1155   5.1350   5.1524
     5.1760   5.2002   5.2150   5.2379   5.2575   5.2782   5.2941   5.3129
     5.3209   5.3382   5.3673   5.3891   5.4153   5.4389   5.4540   5.4732
     5.4928   5.5106   5.5313   5.5477   5.5734   5.5932   5.6187   5.6437
     5.6612   5.6749   5.7079   5.7301   5.7513   5.7743   5.8025   5.8269
     5.8449   5.8634   5.8741   5.9124   5.9332   5.9540   5.9632   5.9874
     6.0304   6.0502   6.0604   6.0921   6.1060   6.1502   6.1669   6.1932
     6.2112   6.2313   6.2621   6.2965   6.3082   6.3206   6.3530   6.3779
     6.3969   6.4194   6.4519   6.4738   6.4974   6.5088   6.5301   6.5369
     6.5523   6.5900   6.6130   6.6365   6.6680   6.6890   6.7078   6.7179
     6.7401   6.7681   6.7869   6.7934   6.8031   6.8215   6.8510   6.8651
     6.8853   6.9018   6.9260   6.9392   6.9623   6.9692   6.9795   7.0012
     7.0156   7.0379   7.0672   7.0873   7.1036   7.1235   7.1417   7.1653
     7.1732   7.1908   7.2104   7.2224   7.2661   7.2776   7.2951   7.3076
     7.3378   7.3473   7.3659   7.3870   7.4152   7.4304   7.4370   7.4660
     7.4835   7.5074   7.5204   7.5376   7.5581   7.5798   7.6066   7.6113
     7.6369   7.6503   7.6960   7.7167   7.7267   7.7455   7.7671   7.7885
     7.8006   7.8209   7.8443   7.8649   7.8800   7.8994   7.9166   7.9312
     7.9525   7.9705   7.9893   8.0435   8.0554   8.0852   8.1029   8.1172
     8.1366   8.1538   8.1687   8.1789   8.2094   8.2216   8.2394   8.2623
     8.2758   8.2962   8.3185   8.3373   8.3566   8.3744   8.3900   8.4068
     8.4280   8.4476   8.4619   8.4776   8.5014   8.5175   8.5314   8.5506
     8.5667   8.5946   8.6106   8.6226   8.6363   8.6562   8.6763   8.6843
     8.7032   8.7246   8.7589   8.7653   8.7791   8.8031   8.8192   8.8395
     8.8526   8.8742   8.9028   8.9210   8.9392   8.9713   8.9959   9.0155
     9.0376   9.0452   9.0716   9.0936   9.1018   9.1361   9.1574   9.1692
     9.1831   9.2162   9.2294   9.2337   9.2538

          k =-0.2500-0.2500 0.2500 ( 99252 PWs)   bands (ev):

    -3.5630  -3.3811  -3.2652  -3.2050  -3.1105  -2.9789  -2.9039  -2.8492
    -2.7384  -2.6960  -2.6355  -2.5849  -2.4990  -2.4561  -2.4014  -2.3007
    -2.2816  -2.1992  -2.1419  -2.0561  -2.0092  -1.9180  -1.8908  -1.8298
    -1.7861  -1.7338  -1.6790  -1.6413  -1.5995  -1.5629  -1.4874  -1.4681
    -1.4338  -1.3553  -1.3006  -1.2607  -1.1972  -1.1413  -1.0891  -1.0542
    -1.0271  -0.9453  -0.9159  -0.8768  -0.8442  -0.7923  -0.7315  -0.6764
    -0.6557  -0.6361  -0.5488  -0.5289  -0.5037  -0.4785  -0.4413  -0.3606
    -0.2897  -0.2502  -0.2454  -0.2040  -0.1638  -0.1447  -0.0929  -0.0811
    -0.0318   0.0111   0.0799   0.0909   0.1244   0.1680   0.1883   0.2337
     0.2625   0.3000   0.3484   0.3766   0.4080   0.4441   0.4773   0.5008
     0.5330   0.5859   0.6174   0.6580   0.6960   0.7435   0.7842   0.8236
     0.8523   0.8809   0.9153   0.9435   0.9831   1.0215   1.0438   1.0639
     1.0827   1.1415   1.1606   1.1998   1.2188   1.2444   1.2663   1.2839
     1.2985   1.3828   1.3879   1.4294   1.4471   1.5009   1.5276   1.5538
     1.5889   1.6255   1.6421   1.6731   1.7111   1.7491   1.7753   1.7905
     1.8344   1.8654   1.8945   1.9361   1.9619   1.9816   2.0070   2.0527
     2.0903   2.1095   2.1448   2.1546   2.1718   2.2045   2.2210   2.2658
     2.2891   2.3279   2.3528   2.3956   2.4165   2.4254   2.4525   2.4918
     2.5196   2.5390   2.5649   2.6024   2.6209   2.6732   2.7102   2.7447
     2.7506   2.7789   2.8115   2.8225   2.8409   2.8772   2.8900   2.9107
     2.9232   2.9368   2.9693   3.0025   3.0264   3.0474   3.0537   3.0906
     3.1309   3.1536   3.1811   3.2142   3.2426   3.2541   3.2806   3.2924
     3.3350   3.3590   3.3789   3.4026   3.4162   3.4398   3.4964   3.5153
     3.5308   3.5651   3.5965   3.6050   3.6392   3.6453   3.6813   3.7061
     3.7350   3.7553   3.7628   3.7797   3.8386   3.8477   3.8772   3.9025
     3.9410   3.9580   3.9800   4.0264   4.0413   4.0586   4.0819   4.0974
     4.1182   4.1445   4.1577   4.1897   4.2021   4.2377   4.2612   4.2903
     4.3017   4.3208   4.3404   4.3618   4.3676   4.4003   4.4126   4.4399
     4.4587   4.4913   4.5155   4.5326   4.5621   4.5762   4.5952   4.6267
     4.6492   4.6720   4.6831   4.7005   4.7363   4.7490   4.7778   4.8110
     4.8320   4.8743   4.9039   4.9264   4.9384   4.9574   4.9744   4.9942
     5.0055   5.0312   5.0601   5.0779   5.0989   5.1296   5.1423   5.1522
     5.1643   5.1695   5.1918   5.2237   5.2437   5.2547   5.2823   5.3060
     5.3254   5.3503   5.3854   5.4039   5.4129   5.4338   5.4475   5.4725
     5.4858   5.5177   5.5357   5.5415   5.5650   5.5949   5.6129   5.6355
     5.6563   5.6773   5.7170   5.7297   5.7585   5.7713   5.8067   5.8115
     5.8525   5.8751   5.9116   5.9286   5.9316   5.9661   5.9736   6.0091
     6.0233   6.0593   6.0707   6.0822   6.1123   6.1367   6.1578   6.1977
     6.2076   6.2369   6.2506   6.2716   6.2916   6.3224   6.3538   6.3707
     6.3917   6.4177   6.4279   6.4869   6.5074   6.5259   6.5387   6.5549
     6.5853   6.5914   6.6179   6.6272   6.6490   6.6774   6.6852   6.7104
     6.7286   6.7417   6.7669   6.7814   6.7984   6.8077   6.8337   6.8399
     6.8610   6.8847   6.9126   6.9230   6.9373   6.9647   6.9752   7.0096
     7.0213   7.0316   7.0521   7.0730   7.0938   7.1158   7.1434   7.1619
     7.1801   7.2022   7.2171   7.2329   7.2490   7.2789   7.2871   7.3282
     7.3387   7.3637   7.3829   7.3962   7.4264   7.4524   7.4590   7.4662
     7.4866   7.5241   7.5288   7.5322   7.5571   7.5819   7.6126   7.6330
     7.6480   7.6614   7.6917   7.7127   7.7446   7.7513   7.7746   7.7992
     7.8099   7.8167   7.8366   7.8808   7.8877   7.9156   7.9249   7.9538
     7.9662   7.9938   8.0034   8.0228   8.0611   8.0780   8.0987   8.1156
     8.1444   8.1642   8.1724   8.2025   8.2172   8.2364   8.2465   8.2601
     8.2700   8.2909   8.3131   8.3371   8.3627   8.3738   8.3885   8.4113
     8.4236   8.4360   8.4530   8.4727   8.4880   8.5037   8.5374   8.5521
     8.5738   8.5860   8.6058   8.6159   8.6276   8.6390   8.6696   8.6849
     8.6950   8.7179   8.7412   8.7602   8.7845   8.7955   8.8353   8.8527
     8.8690   8.8906   8.9002   8.9307   8.9443   8.9629   8.9870   9.0094
     9.0317   9.0548   9.0820   9.0926   9.1102   9.1206   9.1438   9.1625
     9.1735   9.1922   9.2100   9.2369   9.2428

          k =-0.2500 0.2500-0.2500 ( 99252 PWs)   bands (ev):

    -3.5600  -3.3944  -3.2665  -3.1953  -3.0788  -2.9836  -2.9585  -2.8051
    -2.7318  -2.6926  -2.6799  -2.5959  -2.4962  -2.4278  -2.3986  -2.3376
    -2.2623  -2.1639  -2.1043  -2.0696  -2.0294  -1.9654  -1.8739  -1.8251
    -1.7706  -1.7161  -1.6968  -1.6624  -1.5998  -1.5502  -1.5168  -1.4641
    -1.4175  -1.3807  -1.2976  -1.2480  -1.2137  -1.1322  -1.0748  -1.0520
    -1.0178  -0.9840  -0.8888  -0.8516  -0.8296  -0.7718  -0.7383  -0.7186
    -0.6548  -0.6088  -0.5674  -0.5427  -0.4935  -0.4518  -0.4119  -0.3846
    -0.3596  -0.2703  -0.2614  -0.2250  -0.1804  -0.1179  -0.0871  -0.0453
     0.0141   0.0342   0.0781   0.1033   0.1109   0.1504   0.1875   0.2375
     0.2735   0.2923   0.3197   0.3547   0.4014   0.4279   0.4641   0.5128
     0.5751   0.6092   0.6651   0.6732   0.7038   0.7292   0.7780   0.7887
     0.8495   0.8868   0.9018   0.9352   0.9891   1.0122   1.0312   1.0703
     1.0770   1.1340   1.1527   1.1889   1.2189   1.2565   1.2823   1.3082
     1.3356   1.3667   1.3966   1.4122   1.4478   1.4665   1.5189   1.5356
     1.5765   1.6153   1.6382   1.6510   1.6980   1.7248   1.7602   1.7752
     1.8125   1.8879   1.9216   1.9427   1.9791   1.9981   2.0375   2.0795
     2.0944   2.1041   2.1448   2.1571   2.1776   2.2192   2.2633   2.2900
     2.3034   2.3400   2.3562   2.3861   2.4174   2.4322   2.4825   2.5012
     2.5426   2.5713   2.5841   2.6026   2.6335   2.6570   2.6679   2.6943
     2.7233   2.7394   2.7865   2.7953   2.8181   2.8554   2.8700   2.9110
     2.9467   2.9489   2.9818   2.9928   3.0357   3.0522   3.0751   3.1047
     3.1252   3.1525   3.1765   3.2068   3.2154   3.2577   3.2661   3.2963
     3.3347   3.3533   3.3900   3.4011   3.4207   3.4526   3.4764   3.5064
     3.5222   3.5614   3.5793   3.6017   3.6209   3.6486   3.6817   3.7038
     3.7258   3.7558   3.7700   3.8109   3.8241   3.8490   3.8839   3.8915
     3.9303   3.9472   3.9814   4.0048   4.0376   4.0577   4.0836   4.0998
     4.1258   4.1662   4.1897   4.2043   4.2188   4.2480   4.2684   4.2825
     4.2997   4.3151   4.3425   4.3732   4.3810   4.3990   4.4215   4.4496
     4.4671   4.4944   4.5151   4.5403   4.5717   4.5803   4.5962   4.6107
     4.6443   4.6585   4.6920   4.7169   4.7416   4.7535   4.7884   4.8242
     4.8382   4.8738   4.8955   4.8999   4.9422   4.9620   4.9701   4.9910
     5.0184   5.0296   5.0585   5.0669   5.0939   5.1150   5.1297   5.1477
     5.1849   5.1993   5.2216   5.2316   5.2576   5.2708   5.2897   5.3154
     5.3412   5.3493   5.3760   5.3888   5.4108   5.4288   5.4610   5.4786
     5.4966   5.5134   5.5400   5.5471   5.5763   5.5873   5.6050   5.6293
     5.6513   5.6648   5.7014   5.7102   5.7321   5.7548   5.7697   5.7918
     5.8369   5.8467   5.8772   5.9016   5.9204   5.9319   5.9693   6.0078
     6.0257   6.0359   6.0819   6.0867   6.1301   6.1425   6.1670   6.1916
     6.2113   6.2246   6.2537   6.2722   6.3020   6.3291   6.3440   6.3533
     6.3888   6.4164   6.4206   6.4656   6.4964   6.5139   6.5310   6.5629
     6.5750   6.6014   6.6361   6.6444   6.6585   6.6886   6.7104   6.7226
     6.7398   6.7648   6.7728   6.7876   6.7973   6.8350   6.8532   6.8652
     6.8825   6.8981   6.9222   6.9374   6.9445   6.9690   6.9836   7.0108
     7.0180   7.0409   7.0629   7.0912   7.1038   7.1293   7.1355   7.1547
     7.1738   7.1974   7.2154   7.2310   7.2547   7.2670   7.2738   7.3084
     7.3208   7.3514   7.3742   7.3919   7.4136   7.4272   7.4559   7.4718
     7.4851   7.5137   7.5262   7.5508   7.5704   7.5980   7.6103   7.6415
     7.6490   7.6755   7.6810   7.7050   7.7254   7.7391   7.7556   7.7947
     7.8102   7.8363   7.8502   7.8793   7.8894   7.9089   7.9196   7.9401
     7.9659   7.9934   8.0038   8.0147   8.0615   8.0958   8.1196   8.1362
     8.1554   8.1678   8.1889   8.2022   8.2139   8.2396   8.2553   8.2652
     8.2803   8.2984   8.3127   8.3228   8.3418   8.3517   8.3675   8.4086
     8.4156   8.4330   8.4512   8.4736   8.4996   8.5058   8.5213   8.5544
     8.5599   8.5764   8.5992   8.6277   8.6522   8.6558   8.6707   8.6883
     8.7259   8.7414   8.7525   8.7610   8.7926   8.8078   8.8284   8.8363
     8.8512   8.8690   8.8933   8.9120   8.9435   8.9562   8.9660   8.9837
     9.0150   9.0200   9.0626   9.0877   9.1063   9.1200   9.1312   9.1563
     9.1923   9.2042   9.2222   9.2514   9.2588

          k = 0.2500-0.2500-0.2500 ( 99252 PWs)   bands (ev):

    -3.5604  -3.4000  -3.2406  -3.1996  -3.0901  -3.0070  -2.9365  -2.8742
    -2.7137  -2.6468  -2.6319  -2.5778  -2.5394  -2.4342  -2.3779  -2.3228
    -2.2494  -2.2222  -2.1641  -2.1131  -1.9755  -1.9272  -1.8620  -1.8254
    -1.7965  -1.7264  -1.6818  -1.6573  -1.6135  -1.5653  -1.4728  -1.4512
    -1.3950  -1.3392  -1.3186  -1.2741  -1.2106  -1.1354  -1.1064  -1.0530
    -1.0010  -0.9777  -0.9117  -0.8894  -0.8197  -0.7766  -0.7249  -0.7097
    -0.6652  -0.6080  -0.5904  -0.5314  -0.4736  -0.4532  -0.4068  -0.3731
    -0.3436  -0.2832  -0.2411  -0.2107  -0.1787  -0.1153  -0.0906  -0.0628
    -0.0350   0.0028   0.0652   0.0720   0.1429   0.1513   0.1847   0.2206
     0.2543   0.3318   0.3583   0.4081   0.4407   0.4531   0.4654   0.5157
     0.5462   0.5996   0.6269   0.6913   0.6985   0.7225   0.7788   0.8029
     0.8516   0.8703   0.8963   0.9142   0.9538   1.0164   1.0432   1.0665
     1.0843   1.1192   1.1441   1.1740   1.1989   1.2445   1.2713   1.3116
     1.3370   1.3841   1.4149   1.4573   1.4738   1.4986   1.5389   1.5648
     1.5868   1.6218   1.6356   1.6598   1.7183   1.7364   1.7620   1.7735
     1.8198   1.8622   1.8673   1.9129   1.9616   1.9778   2.0112   2.0247
     2.0600   2.0905   2.1336   2.1552   2.2036   2.2356   2.2563   2.2908
     2.3026   2.3484   2.3754   2.4085   2.4196   2.4597   2.4734   2.5072
     2.5232   2.5571   2.5729   2.5975   2.6257   2.6513   2.6822   2.7134
     2.7305   2.7569   2.7687   2.8041   2.8278   2.8525   2.8854   2.8971
     2.9121   2.9530   2.9808   2.9987   3.0291   3.0464   3.0840   3.1118
     3.1170   3.1468   3.1876   3.2236   3.2344   3.2691   3.2991   3.3125
     3.3457   3.3760   3.4033   3.4198   3.4377   3.4586   3.4774   3.5064
     3.5234   3.5304   3.5641   3.5990   3.6270   3.6650   3.6757   3.6968
     3.7311   3.7647   3.7687   3.7940   3.8333   3.8573   3.8802   3.8913
     3.9189   3.9645   3.9810   4.0126   4.0307   4.0562   4.0802   4.1064
     4.1268   4.1552   4.1704   4.1791   4.2022   4.2309   4.2602   4.2718
     4.2985   4.3158   4.3388   4.3519   4.3781   4.3957   4.4150   4.4279
     4.4726   4.4856   4.5073   4.5329   4.5595   4.5914   4.5974   4.6143
     4.6279   4.6667   4.6842   4.7070   4.7237   4.7598   4.7846   4.8097
     4.8445   4.8701   4.8805   4.9085   4.9339   4.9463   4.9760   4.9839
     4.9969   5.0404   5.0535   5.0714   5.1068   5.1197   5.1459   5.1607
     5.1766   5.2074   5.2241   5.2366   5.2706   5.2824   5.3062   5.3271
     5.3392   5.3473   5.3646   5.3894   5.4018   5.4325   5.4467   5.4653
     5.4920   5.5105   5.5318   5.5418   5.5911   5.6117   5.6311   5.6426
     5.6637   5.6862   5.7023   5.7248   5.7398   5.7587   5.7939   5.8149
     5.8329   5.8694   5.8977   5.9118   5.9357   5.9503   5.9622   6.0123
     6.0330   6.0705   6.0886   6.0998   6.1252   6.1414   6.1740   6.2038
     6.2199   6.2278   6.2655   6.2811   6.3045   6.3177   6.3348   6.3499
     6.3780   6.4014   6.4300   6.4516   6.4789   6.4908   6.5210   6.5463
     6.5754   6.5867   6.6145   6.6248   6.6423   6.6473   6.6980   6.7021
     6.7313   6.7410   6.7609   6.7752   6.8054   6.8205   6.8250   6.8449
     6.8667   6.8864   6.9136   6.9268   6.9531   6.9744   6.9936   7.0197
     7.0458   7.0586   7.0821   7.1000   7.1098   7.1237   7.1246   7.1575
     7.1879   7.1982   7.2216   7.2513   7.2653   7.2802   7.2985   7.3357
     7.3437   7.3523   7.3640   7.3889   7.4104   7.4220   7.4456   7.4678
     7.4865   7.5020   7.5239   7.5584   7.5660   7.5836   7.5994   7.6203
     7.6274   7.6613   7.6830   7.6915   7.7302   7.7417   7.7639   7.7899
     7.8141   7.8357   7.8435   7.8609   7.8919   7.9123   7.9321   7.9587
     7.9694   7.9935   8.0127   8.0385   8.0539   8.0743   8.0982   8.1120
     8.1245   8.1554   8.1692   8.2018   8.2079   8.2343   8.2445   8.2692
     8.2908   8.3052   8.3189   8.3401   8.3625   8.3902   8.3973   8.4009
     8.4219   8.4384   8.4593   8.4813   8.4891   8.5217   8.5382   8.5516
     8.5613   8.5849   8.5999   8.6069   8.6322   8.6475   8.6791   8.6812
     8.7141   8.7359   8.7499   8.7660   8.7794   8.7907   8.8171   8.8299
     8.8634   8.8904   8.9170   8.9324   8.9468   8.9583   8.9919   9.0132
     9.0317   9.0494   9.0776   9.0971   9.1093   9.1415   9.1492   9.1628
     9.1710   9.2103   9.2246   9.2398   9.2461

     the Fermi energy is     7.7970 ev

!    total energy              =  -10104.76905697 Ry
     Harris-Foulkes estimate   =  -10104.76905698 Ry
     estimated scf accuracy    <       0.00000005 Ry

     total all-electron energy =   -124317.321195 Ry

     The total energy is the sum of the following terms:

     one-electron contribution =     755.58684717 Ry
     hartree contribution      =      30.05734740 Ry
     xc contribution           =    -783.11888439 Ry
     ewald contribution        =   -1338.55510776 Ry
     one-center paw contrib.   =   -8768.73127475 Ry
     smearing contrib. (-TS)   =      -0.00798465 Ry

     convergence has been achieved in  11 iterations

     Forces acting on atoms (Ry/au):

     atom    1 type  1   force =    -0.01035471   -0.15032631    0.15555093
     atom    2 type  1   force =     0.00196495    0.04062629   -0.08582479
     atom    3 type  1   force =    -0.05336622   -0.05890483    0.07638321
     atom    4 type  1   force =     0.01549280   -0.04564214   -0.00600433
     atom    5 type  1   force =     0.07798052   -0.02271979   -0.00024986
     atom    6 type  1   force =    -0.02044537   -0.05317112    0.05385769
     atom    7 type  1   force =     0.03086041   -0.03365437   -0.03893845
     atom    8 type  1   force =    -0.01719069    0.07791614    0.05680497
     atom    9 type  1   force =    -0.09100650   -0.04591070   -0.08794302
     atom   10 type  1   force =     0.02444433    0.07590209    0.01032238
     atom   11 type  1   force =     0.17524987    0.09918313    0.04071982
     atom   12 type  1   force =    -0.03724312   -0.00687081    0.01500644
     atom   13 type  1   force =    -0.04605022    0.07623701    0.06345897
     atom   14 type  1   force =    -0.20643851    0.05461297   -0.18829724
     atom   15 type  1   force =    -0.08416900   -0.07749229    0.09263996
     atom   16 type  1   force =    -0.01778182    0.04786234    0.01363127
     atom   17 type  1   force =     0.07889847   -0.03707578    0.05670247
     atom   18 type  1   force =    -0.08023536   -0.07943964   -0.01726046
     atom   19 type  1   force =    -0.01514738   -0.04434616   -0.10705036
     atom   20 type  1   force =     0.01650860    0.12288839   -0.14730370
     atom   21 type  1   force =    -0.03094621   -0.12757898   -0.07059559
     atom   22 type  1   force =     0.08796930    0.06745523   -0.02901185
     atom   23 type  1   force =     0.06915803    0.07410999    0.11858069
     atom   24 type  1   force =     0.10325809    0.06604325    0.16276921
     atom   25 type  1   force =     0.01784308   -0.00017464   -0.01920883
     atom   26 type  1   force =    -0.05091507    0.07723315   -0.07583433
     atom   27 type  1   force =     0.07869705   -0.01571991    0.01050156
     atom   28 type  1   force =    -0.01563194   -0.01943939    0.01822354
     atom   29 type  1   force =    -0.02525069    0.01437868    0.08689908
     atom   30 type  1   force =    -0.00653406   -0.00204383   -0.02826605
     atom   31 type  1   force =    -0.00409064    0.00171512    0.00337665
     atom   32 type  1   force =    -0.01480536   -0.01493596    0.01917858
     atom   33 type  1   force =     0.10183577    0.02927083   -0.06281207
     atom   34 type  1   force =     0.07284053   -0.12397248   -0.14515715
     atom   35 type  1   force =    -0.00037154   -0.01911211    0.01452800
     atom   36 type  1   force =    -0.03455814   -0.02082779    0.06126375
     atom   37 type  1   force =     0.08895397   -0.00366785    0.11565411
     atom   38 type  1   force =     0.00232472   -0.02904659   -0.00344468
     atom   39 type  1   force =     0.09633961   -0.07261877   -0.07914497
     atom   40 type  1   force =     0.02134405    0.12642356   -0.14167525
     atom   41 type  1   force =    -0.10431508   -0.14944333    0.17647126
     atom   42 type  1   force =     0.07660356    0.08218355    0.05783401
     atom   43 type  1   force =     0.01037247   -0.05943468    0.00397226
     atom   44 type  1   force =     0.03042213    0.11735260   -0.04215288
     atom   45 type  1   force =    -0.09058931   -0.21452984   -0.10118403
     atom   46 type  1   force =     0.08939082    0.13964253   -0.04511841
     atom   47 type  1   force =    -0.01286690   -0.06091129    0.01235257
     atom   48 type  1   force =    -0.05071452    0.13299084    0.16112007
     atom   49 type  1   force =     0.05460072    0.09983031   -0.09570007
     atom   50 type  1   force =    -0.04885141   -0.02673136    0.02033746
     atom   51 type  1   force =     0.07601702    0.12564580    0.14187376
     atom   52 type  1   force =     0.03115443   -0.00925237   -0.02131437
     atom   53 type  1   force =     0.07577047   -0.05743489   -0.01853459
     atom   54 type  1   force =    -0.02769051    0.09004120    0.00798057
     atom   55 type  1   force =    -0.05702153    0.06466732    0.02989288
     atom   56 type  1   force =     0.03781231    0.07090387    0.04184954
     atom   57 type  1   force =     0.06331033   -0.02461849    0.01306545
     atom   58 type  1   force =     0.02312267    0.01369003   -0.02211689
     atom   59 type  1   force =     0.09223165   -0.01478616   -0.08399650
     atom   60 type  1   force =    -0.11580246   -0.16512351   -0.06220656
     atom   61 type  1   force =    -0.08596449   -0.01532467    0.07567019
     atom   62 type  1   force =     0.05814209   -0.02362353    0.05450669
     atom   63 type  1   force =    -0.01252497    0.00283465    0.00936935
     atom   64 type  1   force =     0.04722705    0.03645589    0.01586449
     atom   65 type  1   force =     0.05125890   -0.02025002   -0.04702016
     atom   66 type  1   force =    -0.02012295   -0.00144516   -0.00276824
     atom   67 type  1   force =     0.04649154    0.01573155   -0.06054847
     atom   68 type  1   force =     0.06851433    0.03801963   -0.01327678
     atom   69 type  1   force =    -0.01229291   -0.00353222   -0.03538416
     atom   70 type  1   force =    -0.08859175   -0.14325884   -0.08897446
     atom   71 type  1   force =     0.05866926    0.00831871    0.03152310
     atom   72 type  1   force =    -0.01838740   -0.00959368   -0.04235071
     atom   73 type  1   force =     0.09048943   -0.14363907   -0.16054463
     atom   74 type  1   force =    -0.04483969   -0.03283878    0.07771545
     atom   75 type  1   force =     0.03119080    0.08666109    0.02257986
     atom   76 type  1   force =     0.20125728    0.06488387    0.26909899
     atom   77 type  1   force =     0.00198561    0.00252658    0.00163086
     atom   78 type  1   force =     0.01975514   -0.14612296   -0.13852651
     atom   79 type  1   force =     0.02035035   -0.03326473   -0.00392659
     atom   80 type  1   force =    -0.01671262   -0.03088822    0.03967499
     atom   81 type  1   force =    -0.08217896    0.05119653   -0.07922542
     atom   82 type  1   force =    -0.03393784    0.03822056   -0.00074597
     atom   83 type  1   force =     0.02578439   -0.00400170    0.06053343
     atom   84 type  1   force =    -0.01028366    0.03949349   -0.03795692
     atom   85 type  1   force =     0.04254421   -0.08366956    0.02532556
     atom   86 type  1   force =     0.00192546   -0.03721312   -0.01194603
     atom   87 type  1   force =    -0.01577443    0.08295857    0.05256973
     atom   88 type  1   force =    -0.00664106    0.02142645    0.03616561
     atom   89 type  1   force =    -0.04530080    0.03635866   -0.04763948
     atom   90 type  1   force =     0.06021500    0.04921118    0.05811324
     atom   91 type  1   force =    -0.01651080    0.04526660    0.03754837
     atom   92 type  1   force =     0.01953219    0.01681753    0.00890197
     atom   93 type  1   force =     0.00455417    0.08643296   -0.06235089
     atom   94 type  1   force =     0.04310699    0.03702826   -0.05076262
     atom   95 type  1   force =     0.03250108    0.12804274    0.16731667
     atom   96 type  1   force =    -0.09460179   -0.11860873    0.04266282
     atom   97 type  1   force =    -0.11941102   -0.03168979    0.10697579
     atom   98 type  1   force =     0.27978399   -0.02313565    0.28771698
     atom   99 type  1   force =     0.08220269    0.01741801   -0.11396253
     atom  100 type  1   force =     0.05464366   -0.04930045    0.01227035
     atom  101 type  1   force =    -0.10927207    0.02256542    0.11068412
     atom  102 type  1   force =    -0.07227180   -0.03534904    0.04347075
     atom  103 type  1   force =    -0.01899491    0.07326663   -0.00434098
     atom  104 type  1   force =     0.06261062    0.06661639   -0.01046792
     atom  105 type  1   force =     0.02927906   -0.05067335    0.00811447
     atom  106 type  1   force =     0.01983726   -0.01421964   -0.07631482
     atom  107 type  1   force =     0.02425964   -0.06181298    0.01732742
     atom  108 type  1   force =    -0.04234935   -0.01031040   -0.02624519
     atom  109 type  1   force =     0.02997147    0.03810664   -0.02485414
     atom  110 type  1   force =     0.02175682   -0.01746678    0.00444895
     atom  111 type  1   force =     0.18686910    0.05606926   -0.10115803
     atom  112 type  1   force =    -0.32484623    0.01196684   -0.28192348
     atom  113 type  1   force =     0.00604029   -0.02480736    0.04126720
     atom  114 type  1   force =    -0.14979894    0.07111201   -0.09076352
     atom  115 type  1   force =    -0.30724706    0.27323241    0.01646206
     atom  116 type  1   force =    -0.00497407   -0.04630283    0.00177281
     atom  117 type  1   force =    -0.02056450   -0.05446259   -0.04003491
     atom  118 type  1   force =     0.05015018    0.03694246   -0.04125579
     atom  119 type  1   force =     0.10250768   -0.11590037    0.04899208
     atom  120 type  1   force =    -0.12222859    0.10913562    0.06093546
     atom  121 type  1   force =    -0.04451628   -0.04655531   -0.10171415
     atom  122 type  1   force =     0.06293692   -0.04418394   -0.11445013
     atom  123 type  1   force =     0.08879983    0.06885028    0.07812226
     atom  124 type  1   force =    -0.10954392    0.01293289    0.11590290
     atom  125 type  1   force =     0.02473820    0.05349570    0.01263439
     atom  126 type  1   force =    -0.06486323   -0.02206760    0.07308766
     atom  127 type  1   force =     0.00263015    0.11721712   -0.01266105
     atom  128 type  1   force =     0.00912896    0.04067292   -0.04543173
     atom  129 type  1   force =     0.02532247    0.04022287   -0.04530952
     atom  130 type  1   force =    -0.11001043    0.00003135    0.09185632
     atom  131 type  1   force =     0.03725421    0.04421990   -0.00861938
     atom  132 type  1   force =     0.00890721    0.02409446   -0.03377578
     atom  133 type  1   force =    -0.06286171   -0.00497265    0.04766363
     atom  134 type  1   force =     0.03270453   -0.03209300   -0.03640460
     atom  135 type  1   force =    -0.03867220    0.04938052    0.02777738
     atom  136 type  1   force =     0.08797390   -0.00059635   -0.05493416
     atom  137 type  1   force =     0.00718185    0.01430347    0.06480764
     atom  138 type  1   force =    -0.16593202   -0.21949541    0.00789119
     atom  139 type  1   force =     0.03607519   -0.04319183   -0.04078079
     atom  140 type  1   force =    -0.07461782   -0.02323466   -0.09325676
     atom  141 type  1   force =    -0.00976281    0.02143606    0.03623652
     atom  142 type  1   force =     0.12295147   -0.05158180    0.09657725
     atom  143 type  1   force =    -0.07954878    0.18054749   -0.13254295
     atom  144 type  1   force =     0.02371694   -0.04256188    0.02663704
     atom  145 type  1   force =     0.02773992   -0.07588345    0.01143639
     atom  146 type  1   force =     0.04783615    0.05075960   -0.03617777
     atom  147 type  1   force =     0.03190690   -0.11389242   -0.03625280
     atom  148 type  1   force =     0.01153817    0.00122891   -0.04651371
     atom  149 type  1   force =     0.03809984    0.06527566    0.03096919
     atom  150 type  1   force =    -0.02374211    0.00746616    0.08917602
     atom  151 type  1   force =    -0.01194723    0.07184413   -0.01851933
     atom  152 type  1   force =    -0.10710315    0.04151099   -0.18726344
     atom  153 type  1   force =    -0.18559903   -0.26988003    0.01758744
     atom  154 type  1   force =     0.35679519    0.17651933   -0.00203416
     atom  155 type  1   force =     0.03041034   -0.02315417    0.00006826
     atom  156 type  1   force =    -0.17179650   -0.02236814    0.11574645
     atom  157 type  1   force =    -0.08702174    0.05124226   -0.00344995
     atom  158 type  1   force =     0.10155398   -0.04393229    0.04496847
     atom  159 type  1   force =    -0.01119774    0.01126846    0.04723993
     atom  160 type  1   force =    -0.03718066    0.00640667   -0.00325682
     atom  161 type  1   force =    -0.02862974   -0.03505556   -0.02052672
     atom  162 type  1   force =     0.02383984    0.08959094    0.04121303
     atom  163 type  1   force =    -0.00789299   -0.00248239   -0.08184563
     atom  164 type  1   force =     0.29614417   -0.32083639   -0.05084873
     atom  165 type  1   force =    -0.07773107   -0.02552661    0.00829149
     atom  166 type  1   force =     0.04528585    0.12277224    0.00032737
     atom  167 type  1   force =    -0.01548215   -0.01819854    0.09782392
     atom  168 type  1   force =    -0.00017645   -0.07818187   -0.06440261
     atom  169 type  1   force =    -0.04064778    0.04367606   -0.04363235
     atom  170 type  1   force =    -0.06928779    0.05001334   -0.00322190
     atom  171 type  1   force =     0.08829716    0.09540691    0.04577114
     atom  172 type  1   force =    -0.05028871   -0.23863152   -0.14273457
     atom  173 type  1   force =    -0.09021890    0.10458315    0.00215119
     atom  174 type  1   force =     0.01519784   -0.07518019   -0.03278298
     atom  175 type  1   force =    -0.03208267   -0.07674729   -0.04776143
     atom  176 type  1   force =     0.05081304   -0.06953783    0.01442785
     atom  177 type  1   force =     0.13084838   -0.08085453   -0.04098193
     atom  178 type  1   force =    -0.04736821   -0.14712185    0.16251328
     atom  179 type  1   force =     0.00275069   -0.02416744   -0.01835517
     atom  180 type  1   force =     0.09595732   -0.04177507    0.08541767
     atom  181 type  1   force =     0.03986696    0.06452990    0.05124705
     atom  182 type  1   force =     0.02011738   -0.03086902    0.03278924
     atom  183 type  1   force =    -0.01486726   -0.02785154    0.01763742
     atom  184 type  1   force =    -0.03396582   -0.01518148   -0.04965195
     atom  185 type  1   force =    -0.01071973    0.05683879    0.06252920
     atom  186 type  1   force =    -0.05373789    0.01914905   -0.04540479
     atom  187 type  1   force =     0.09781949    0.06854093   -0.00912811
     atom  188 type  1   force =     0.07711441   -0.01759105   -0.07573330
     atom  189 type  1   force =    -0.06236089    0.16686907    0.14730362
     atom  190 type  1   force =    -0.00929298    0.01165348   -0.09101805
     atom  191 type  1   force =     0.01571905    0.00527515    0.07576136
     atom  192 type  1   force =    -0.00606034    0.01655965    0.01512387
     atom  193 type  1   force =     0.02917891   -0.13978041    0.10964729
     atom  194 type  1   force =    -0.00764821   -0.01191667    0.01120603
     atom  195 type  1   force =     0.01949665    0.01821992   -0.01162525
     atom  196 type  1   force =    -0.01964197    0.04198540    0.04496949
     atom  197 type  1   force =    -0.02184581    0.05416155   -0.08590270
     atom  198 type  1   force =     0.02414358    0.01797736    0.01677287
     atom  199 type  1   force =     0.02452741    0.46083011    0.34188833
     atom  200 type  1   force =    -0.04654894   -0.10454136    0.05584680
     atom  201 type  1   force =    -0.00356381    0.03075149    0.01340814
     atom  202 type  1   force =     0.14359293    0.00123057   -0.18035944
     atom  203 type  1   force =    -0.01025500   -0.12580148   -0.13948547
     atom  204 type  1   force =    -0.20745890   -0.14309733    0.17799612
     atom  205 type  1   force =    -0.08852868   -0.00843414    0.06310703
     atom  206 type  1   force =    -0.03390127    0.07346281    0.07094660
     atom  207 type  1   force =    -0.03259139    0.04039307   -0.04107010
     atom  208 type  1   force =     0.07172667    0.09124757   -0.21643586
     atom  209 type  1   force =     0.00077241    0.05617384    0.02511287
     atom  210 type  1   force =    -0.15483146    0.04016286   -0.15648106
     atom  211 type  1   force =    -0.05766488   -0.03320833    0.01456697
     atom  212 type  1   force =    -0.04996578   -0.04842321    0.03855085
     atom  213 type  1   force =     0.01853006    0.01330285   -0.09187878
     atom  214 type  1   force =    -0.01924231   -0.00980211    0.03361273
     atom  215 type  1   force =     0.05006681    0.03177977    0.01072261
     atom  216 type  1   force =    -0.03002979    0.04733977    0.02215920
     atom  217 type  1   force =     0.13669284    0.24546371   -0.06774907
     atom  218 type  1   force =    -0.01676357   -0.01144345    0.01619001
     atom  219 type  1   force =     0.09590970    0.11560813    0.04598752
     atom  220 type  1   force =     0.01848951   -0.04941670   -0.03733814
     atom  221 type  1   force =     0.04791326   -0.02696032   -0.05551196
     atom  222 type  1   force =    -0.09362862   -0.12029423   -0.03476714
     atom  223 type  1   force =    -0.07654762   -0.00188628    0.07317452
     atom  224 type  1   force =    -0.01682233    0.02736570    0.03053163
     atom  225 type  1   force =    -0.07524912    0.00585713   -0.11417840
     atom  226 type  1   force =    -0.03694530   -0.08513382   -0.09259727
     atom  227 type  1   force =     0.04789776   -0.02536873    0.07901919
     atom  228 type  1   force =    -0.06807322   -0.02368145    0.05152479
     atom  229 type  1   force =     0.11430277    0.02021597    0.00793168
     atom  230 type  1   force =    -0.05210246   -0.04311950    0.05162925
     atom  231 type  1   force =    -0.08665370   -0.03840052   -0.01161439
     atom  232 type  1   force =     0.01212388    0.00500063   -0.06692896
     atom  233 type  1   force =     0.03768188   -0.09918942   -0.00627991
     atom  234 type  1   force =     0.11790920   -0.04437765   -0.03856461
     atom  235 type  1   force =     0.07911539    0.01443111   -0.08788284
     atom  236 type  1   force =    -0.03807130    0.00678126   -0.02943179
     atom  237 type  1   force =    -0.08189266   -0.04112895    0.09482410
     atom  238 type  1   force =    -0.01851867    0.04387134   -0.03431264
     atom  239 type  1   force =    -0.13995524   -0.00089509   -0.02778741
     atom  240 type  1   force =     0.05147250    0.06548453    0.03461854
     atom  241 type  1   force =    -0.10503787   -0.05219441   -0.00903422
     atom  242 type  1   force =     0.01209104    0.12481901    0.03439541
     atom  243 type  1   force =    -0.02908078    0.08970701    0.04666211
     atom  244 type  1   force =    -0.01477914    0.00992161   -0.04077983
     atom  245 type  1   force =    -0.00350767   -0.06208729   -0.01548950
     atom  246 type  1   force =     0.06076359   -0.31741180   -0.38576124
     atom  247 type  1   force =    -0.00512765   -0.06410954    0.08705918
     atom  248 type  1   force =    -0.04288491   -0.11959504    0.07050901
     atom  249 type  1   force =    -0.09930493   -0.00440211   -0.10018233
     atom  250 type  1   force =    -0.00000943    0.10755133   -0.14740332
     atom  251 type  1   force =     0.07469790   -0.18195313    0.11499470
     atom  252 type  1   force =    -0.03209853    0.09536224    0.08643090
     atom  253 type  1   force =    -0.02241525    0.04554178    0.05255777
     atom  254 type  1   force =     0.01322957    0.05210210    0.06232096
     atom  255 type  1   force =    -0.07221797   -0.03605426    0.01569051
     atom  256 type  1   force =     0.10866323   -0.06440457   -0.04346418

     Total force =     2.307163     Total SCF correction =     0.000314


     entering subroutine stress ...

          total   stress  (Ry/bohr**3)                   (kbar)     P=  119.76
   0.00078807   0.00003124   0.00000318        115.93      4.60      0.47
   0.00003124   0.00086108   0.00003813          4.60    126.67      5.61
   0.00000318   0.00003813   0.00079325          0.47      5.61    116.69


     Writing output data file 7db490c6b7ed.save
 
     init_run     :     78.05s CPU     83.13s WALL (       1 calls)
     electrons    :   1793.17s CPU   1867.50s WALL (       1 calls)
     forces       :     40.77s CPU     41.01s WALL (       1 calls)
     stress       :    190.67s CPU    191.25s WALL (       1 calls)

     Called by init_run:
     wfcinit      :     72.06s CPU     76.36s WALL (       1 calls)
     potinit      :      0.62s CPU      0.81s WALL (       1 calls)

     Called by electrons:
     c_bands      :   1596.40s CPU   1654.56s WALL (      11 calls)
     sum_band     :    143.57s CPU    154.74s WALL (      11 calls)
     v_of_rho     :      1.80s CPU      2.87s WALL (      12 calls)
     newd         :     44.58s CPU     45.07s WALL (      12 calls)
     mix_rho      :      3.49s CPU      4.72s WALL (      11 calls)

     Called by c_bands:
     init_us_2    :      4.16s CPU      4.22s WALL (     100 calls)
     cegterg      :   1580.95s CPU   1638.88s WALL (      44 calls)

     Called by *egterg:
     h_psi        :    547.80s CPU    602.42s WALL (     262 calls)
     s_psi        :    157.18s CPU    157.98s WALL (     262 calls)
     g_psi        :      2.03s CPU      2.03s WALL (     214 calls)
     cdiaghg      :    660.32s CPU    661.44s WALL (     258 calls)

     Called by h_psi:
     add_vuspsi   :    157.91s CPU    158.71s WALL (     262 calls)

     General routines
     calbec       :    246.95s CPU    247.40s WALL (     314 calls)
     fft          :      3.78s CPU      6.32s WALL (     213 calls)
     ffts         :      1.38s CPU      2.52s WALL (     153 calls)
     fftw         :    218.33s CPU    282.00s WALL (  135196 calls)
     interpolate  :      1.02s CPU      1.47s WALL (      23 calls)
     davcio       :      0.01s CPU      5.13s WALL (       4 calls)
 
     Parallel routines
     fft_scatter  :    127.08s CPU    168.23s WALL (  135562 calls)
 
     PAW routines
     PAW_pot      :      5.00s CPU      5.25s WALL (      12 calls)
     PAW_ddot     :      1.71s CPU      1.75s WALL (     211 calls)
 
     PWSCF        : 35m 7.48s CPU    36m33.83s WALL

 
   This run was terminated on:   3:43:57  20Oct2013            

=------------------------------------------------------------------------------=
   JOB DONE.
=------------------------------------------------------------------------------=
