
 ========================   JOB MAP   ========================

 Data for node: bb2a3a12	Num procs: 16
 	Process OMPI jobid: [6168,1] Process rank: 0
 	Process OMPI jobid: [6168,1] Process rank: 2
 	Process OMPI jobid: [6168,1] Process rank: 4
 	Process OMPI jobid: [6168,1] Process rank: 6
 	Process OMPI jobid: [6168,1] Process rank: 8
 	Process OMPI jobid: [6168,1] Process rank: 10
 	Process OMPI jobid: [6168,1] Process rank: 12
 	Process OMPI jobid: [6168,1] Process rank: 14
 	Process OMPI jobid: [6168,1] Process rank: 16
 	Process OMPI jobid: [6168,1] Process rank: 18
 	Process OMPI jobid: [6168,1] Process rank: 20
 	Process OMPI jobid: [6168,1] Process rank: 22
 	Process OMPI jobid: [6168,1] Process rank: 24
 	Process OMPI jobid: [6168,1] Process rank: 26
 	Process OMPI jobid: [6168,1] Process rank: 28
 	Process OMPI jobid: [6168,1] Process rank: 30

 Data for node: bb2a3a10	Num procs: 16
 	Process OMPI jobid: [6168,1] Process rank: 1
 	Process OMPI jobid: [6168,1] Process rank: 3
 	Process OMPI jobid: [6168,1] Process rank: 5
 	Process OMPI jobid: [6168,1] Process rank: 7
 	Process OMPI jobid: [6168,1] Process rank: 9
 	Process OMPI jobid: [6168,1] Process rank: 11
 	Process OMPI jobid: [6168,1] Process rank: 13
 	Process OMPI jobid: [6168,1] Process rank: 15
 	Process OMPI jobid: [6168,1] Process rank: 17
 	Process OMPI jobid: [6168,1] Process rank: 19
 	Process OMPI jobid: [6168,1] Process rank: 21
 	Process OMPI jobid: [6168,1] Process rank: 23
 	Process OMPI jobid: [6168,1] Process rank: 25
 	Process OMPI jobid: [6168,1] Process rank: 27
 	Process OMPI jobid: [6168,1] Process rank: 29
 	Process OMPI jobid: [6168,1] Process rank: 31

 =============================================================

     Program PWSCF v.5.0.2 (svn rev. 9392) starts on 19Oct2013 at  5:10: 3 

     This program is part of the open-source Quantum ESPRESSO suite
     for quantum simulation of materials; please cite
         "P. Giannozzi et al., J. Phys.:Condens. Matter 21 395502 (2009);
          URL http://www.quantum-espresso.org", 
     in publications or presentations arising from this work. More details at
     http://www.quantum-espresso.org/quote.php

     Parallel version (MPI), running on    32 processors
     R & G space division:  proc/nbgrp/npool/nimage =      32

     Current dimensions of program PWSCF are:
     Max number of different atomic species (ntypx) = 10
     Max number of k-points (npk) =  40000
     Max angular momentum in pseudopotentials (lmaxx) =  3
     Reading input from /gpfs/bb/bxp912/pwscf/input_4e909705af40d_4f4f.in
Warning: card &IONS ignored
Warning: card ION_DYNAMICS='BFGS', ignored
Warning: card / ignored
Warning: card &CELL ignored
Warning: card CELL_DYNAMICS='BFGS', ignored
Warning: card PRESS=0.0, ignored
Warning: card CELL_FACTOR=2.0, ignored
Warning: card / ignored
               file Al.pbe-n-kjpaw_psl.0.1.UPF: wavefunction(s)  3S renormalized

     Subspace diagonalization in iterative solution of the eigenvalue problem:
     a serial algorithm will be used

 
     Parallelization info
     --------------------
     sticks:   dense  smooth     PW     G-vecs:    dense   smooth      PW
     Min         481     324     84                44979    24827    3248
     Max         483     325     85                44982    24855    3250
     Sum       15421   10389   2693              1439361   794839  103959
 


     bravais-lattice index     =           14
     lattice parameter (alat)  =      30.5130  a.u.
     unit-cell volume          =   28409.0236 (a.u.)^3
     number of atoms/cell      =          256
     number of atomic types    =            1
     number of electrons       =       768.00
     number of Kohn-Sham states=          461
     kinetic-energy cutoff     =      35.0000  Ry
     charge density cutoff     =     208.0000  Ry
     convergence threshold     =      1.0E-07
     mixing beta               =       0.7000
     number of iterations used =            8  local-TF  mixing
     Exchange-correlation      =  SLA  PW   PBX  PBC ( 1 4 3 4 0)
     EXX-fraction              =        0.00

     celldm(1)=  30.513037  celldm(2)=   1.000000  celldm(3)=   1.000000
     celldm(4)=   0.000000  celldm(5)=   0.000000  celldm(6)=   0.000000

     crystal axes: (cart. coord. in units of alat)
               a(1) = (   1.000000   0.000000   0.000000 )  
               a(2) = (   0.000000   1.000000   0.000000 )  
               a(3) = (   0.000000   0.000000   1.000000 )  

     reciprocal axes: (cart. coord. in units 2 pi/alat)
               b(1) = (  1.000000  0.000000  0.000000 )  
               b(2) = (  0.000000  1.000000  0.000000 )  
               b(3) = (  0.000000  0.000000  1.000000 )  


     PseudoPot. # 1 for Al read from file:
     /gpfs/bb/bxp912/pseudopotentials/Al.pbe-n-kjpaw_psl.0.1.UPF
     MD5 check sum: c290c600b2b3f4e95cb15d62bc64d19d
     Pseudo is Projector augmented-wave + core cor, Zval =  3.0
     Generated using "atomic" code by A. Dal Corso  v.5.0.2 svn rev. 9392
     Shape of augmentation charge: PSQ
     Using radial grid of 1135 points,  4 beta functions with: 
                l(1) =   0
                l(2) =   0
                l(3) =   1
                l(4) =   1
     Q(r) pseudized with 0 coefficients 


     atomic species   valence    mass     pseudopotential
        N              3.00    26.98154     Al( 1.00)

     No symmetry found



   Cartesian axes

     site n.     atom                  positions (alat units)
         1           N   tau(   1) = (   0.0085330   0.0136000   0.0029060  )
         2           N   tau(   2) = (   0.1193920   0.1179810   0.0089550  )
         3           N   tau(   3) = (   0.1442430   0.9928650   0.1486330  )
         4           N   tau(   4) = (   0.9872810   0.1320050   0.1423910  )
         5           N   tau(   5) = (   0.2464400   0.0101370   0.9926980  )
         6           N   tau(   6) = (   0.2761940   0.1144030   0.1096880  )
         7           N   tau(   7) = (   0.3825870   0.1183720   0.0076030  )
         8           N   tau(   8) = (   0.3513890   0.0105710   0.1321950  )
         9           N   tau(   9) = (   0.0182130   0.9866160   0.2538850  )
        10           N   tau(  10) = (   0.1372590   0.1353670   0.2277870  )
        11           N   tau(  11) = (   0.1238730   0.9935290   0.3859980  )
        12           N   tau(  12) = (   0.9782070   0.1091530   0.3811510  )
        13           N   tau(  13) = (   0.9858670   0.0035210   0.5080010  )
        14           N   tau(  14) = (   0.1355450   0.1288340   0.5048420  )
        15           N   tau(  15) = (   0.1349320   0.9919360   0.6120270  )
        16           N   tau(  16) = (   0.0110150   0.1210350   0.6234960  )
        17           N   tau(  17) = (   0.9878330   0.9927110   0.7521250  )
        18           N   tau(  18) = (   0.1317590   0.1129460   0.7658150  )
        19           N   tau(  19) = (   0.1123190   0.0203450   0.8691300  )
        20           N   tau(  20) = (   0.9829350   0.1110280   0.8843270  )
        21           N   tau(  21) = (   0.0073590   0.2329200   0.0109550  )
        22           N   tau(  22) = (   0.1057840   0.3595490   0.0069100  )
        23           N   tau(  23) = (   0.1135460   0.2596650   0.1098850  )
        24           N   tau(  24) = (   0.0176060   0.3821750   0.1052890  )
        25           N   tau(  25) = (   0.0144080   0.2267570   0.2648490  )
        26           N   tau(  26) = (   0.1361220   0.3705790   0.2570120  )
        27           N   tau(  27) = (   0.1237820   0.2620910   0.3696020  )
        28           N   tau(  28) = (   0.9895050   0.3693500   0.3612000  )
        29           N   tau(  29) = (   0.9792650   0.2535720   0.5036170  )
        30           N   tau(  30) = (   0.1132990   0.3625030   0.5276670  )
        31           N   tau(  31) = (   0.1408260   0.2549450   0.6101460  )
        32           N   tau(  32) = (   0.0093080   0.3650060   0.6152250  )
        33           N   tau(  33) = (   0.9864420   0.2443970   0.7364630  )
        34           N   tau(  34) = (   0.1118810   0.3809300   0.7365750  )
        35           N   tau(  35) = (   0.1377670   0.2732950   0.8870850  )
        36           N   tau(  36) = (   0.9913980   0.3843050   0.8778420  )
        37           N   tau(  37) = (   0.0168290   0.5154140   0.0077830  )
        38           N   tau(  38) = (   0.1400770   0.6044750   0.9862570  )
        39           N   tau(  39) = (   0.1382400   0.5255540   0.1062690  )
        40           N   tau(  40) = (   0.9735810   0.6393990   0.1135020  )
        41           N   tau(  41) = (   0.0183730   0.4899610   0.2570000  )
        42           N   tau(  42) = (   0.1314160   0.6062810   0.2448310  )
        43           N   tau(  43) = (   0.1500100   0.4754950   0.3609270  )
        44           N   tau(  44) = (   0.9913380   0.6416390   0.4001070  )
        45           N   tau(  45) = (   0.9811630   0.4745500   0.5188210  )
        46           N   tau(  46) = (   0.1392790   0.6176380   0.5182650  )
        47           N   tau(  47) = (   0.1362770   0.4894090   0.6455370  )
        48           N   tau(  48) = (   0.9901400   0.6155780   0.6398760  )
        49           N   tau(  49) = (   0.9786910   0.4933350   0.7422960  )
        50           N   tau(  50) = (   0.1320980   0.6291660   0.7628640  )
        51           N   tau(  51) = (   0.1109390   0.5127770   0.8676430  )
        52           N   tau(  52) = (   0.0087810   0.6154400   0.8740270  )
        53           N   tau(  53) = (   0.0085050   0.7540880   0.9839300  )
        54           N   tau(  54) = (   0.1105320   0.8587820   0.9921010  )
        55           N   tau(  55) = (   0.1240510   0.7539620   0.1399760  )
        56           N   tau(  56) = (   0.9996500   0.8941560   0.1189490  )
        57           N   tau(  57) = (   0.0229340   0.7675370   0.2573450  )
        58           N   tau(  58) = (   0.1125370   0.8687080   0.2432850  )
        59           N   tau(  59) = (   0.1153920   0.7377730   0.3904930  )
        60           N   tau(  60) = (   0.9956670   0.8668060   0.3926930  )
        61           N   tau(  61) = (   0.9819650   0.7422160   0.4907160  )
        62           N   tau(  62) = (   0.1409820   0.8972540   0.4869600  )
        63           N   tau(  63) = (   0.1333810   0.7653530   0.6412510  )
        64           N   tau(  64) = (   0.9902160   0.8915290   0.6182460  )
        65           N   tau(  65) = (   0.0155440   0.7556400   0.7389230  )
        66           N   tau(  66) = (   0.1008600   0.8911720   0.7717270  )
        67           N   tau(  67) = (   0.1392130   0.7405910   0.8696560  )
        68           N   tau(  68) = (   0.9843940   0.8779680   0.8966940  )
        69           N   tau(  69) = (   0.2417150   0.0205420   0.2565310  )
        70           N   tau(  70) = (   0.3864220   0.1152850   0.2294190  )
        71           N   tau(  71) = (   0.3621120   0.9954910   0.3775720  )
        72           N   tau(  72) = (   0.2596690   0.1109170   0.3679490  )
        73           N   tau(  73) = (   0.2352840   0.9934830   0.4912080  )
        74           N   tau(  74) = (   0.3864460   0.1151980   0.5144210  )
        75           N   tau(  75) = (   0.3641980   0.0112160   0.6083050  )
        76           N   tau(  76) = (   0.2645480   0.1311450   0.6112810  )
        77           N   tau(  77) = (   0.2666950   0.9796880   0.7658270  )
        78           N   tau(  78) = (   0.3805540   0.1268610   0.7540850  )
        79           N   tau(  79) = (   0.3856100   0.9756230   0.8525300  )
        80           N   tau(  80) = (   0.2401320   0.1409760   0.8686990  )
        81           N   tau(  81) = (   0.2566620   0.2323670   0.0132180  )
        82           N   tau(  82) = (   0.3880930   0.3848050   0.0158480  )
        83           N   tau(  83) = (   0.3874890   0.2387090   0.1184640  )
        84           N   tau(  84) = (   0.2287060   0.3701260   0.1143200  )
        85           N   tau(  85) = (   0.2607750   0.2399950   0.2649430  )
        86           N   tau(  86) = (   0.3608220   0.3647790   0.2574540  )
        87           N   tau(  87) = (   0.3564450   0.2411550   0.3828770  )
        88           N   tau(  88) = (   0.2584230   0.3536790   0.3654370  )
        89           N   tau(  89) = (   0.2588070   0.2657790   0.5047930  )
        90           N   tau(  90) = (   0.3861910   0.3488960   0.4842610  )
        91           N   tau(  91) = (   0.3643470   0.2619600   0.6079350  )
        92           N   tau(  92) = (   0.2311980   0.3619780   0.6426910  )
        93           N   tau(  93) = (   0.2434720   0.2644250   0.7698130  )
        94           N   tau(  94) = (   0.3812650   0.3830550   0.7361940  )
        95           N   tau(  95) = (   0.3777440   0.2733480   0.8986460  )
        96           N   tau(  96) = (   0.2356430   0.4049860   0.8819000  )
        97           N   tau(  97) = (   0.2281730   0.5091780   0.0065690  )
        98           N   tau(  98) = (   0.3837450   0.6321240   0.9886500  )
        99           N   tau(  99) = (   0.4026450   0.4921590   0.1375210  )
       100           N   tau( 100) = (   0.2356920   0.5997430   0.1117540  )
       101           N   tau( 101) = (   0.2429530   0.5079280   0.2598020  )
       102           N   tau( 102) = (   0.4008290   0.6371600   0.2671040  )
       103           N   tau( 103) = (   0.3641850   0.5046550   0.3717780  )
       104           N   tau( 104) = (   0.2333350   0.6322430   0.3831710  )
       105           N   tau( 105) = (   0.2288010   0.4906450   0.4882310  )
       106           N   tau( 106) = (   0.3583290   0.6189780   0.5229560  )
       107           N   tau( 107) = (   0.3631920   0.4809730   0.6316960  )
       108           N   tau( 108) = (   0.2335560   0.6096750   0.6163760  )
       109           N   tau( 109) = (   0.2395370   0.5171500   0.7460140  )
       110           N   tau( 110) = (   0.3855420   0.5972780   0.7313680  )
       111           N   tau( 111) = (   0.3909390   0.4933600   0.8615540  )
       112           N   tau( 112) = (   0.2606410   0.6269460   0.8800920  )
       113           N   tau( 113) = (   0.2703340   0.7300530   0.9843350  )
       114           N   tau( 114) = (   0.3835470   0.8823180   0.0174190  )
       115           N   tau( 115) = (   0.3802830   0.7581390   0.1546560  )
       116           N   tau( 116) = (   0.2633000   0.8599000   0.1116110  )
       117           N   tau( 117) = (   0.2719940   0.7596490   0.2416730  )
       118           N   tau( 118) = (   0.3806870   0.8843930   0.2662020  )
       119           N   tau( 119) = (   0.3814230   0.7565280   0.3798980  )
       120           N   tau( 120) = (   0.2337580   0.8812910   0.3843160  )
       121           N   tau( 121) = (   0.2550600   0.7296420   0.4839540  )
       122           N   tau( 122) = (   0.3789630   0.8633900   0.5128970  )
       123           N   tau( 123) = (   0.3511670   0.7255440   0.6411040  )
       124           N   tau( 124) = (   0.2405230   0.8591010   0.6159800  )
       125           N   tau( 125) = (   0.2377770   0.7539130   0.7458810  )
       126           N   tau( 126) = (   0.3953130   0.8845280   0.7493990  )
       127           N   tau( 127) = (   0.3819240   0.7660420   0.8627970  )
       128           N   tau( 128) = (   0.2615500   0.8757070   0.8920170  )
       129           N   tau( 129) = (   0.4950090   0.0143340   0.9848950  )
       130           N   tau( 130) = (   0.6102110   0.1279670   0.9779300  )
       131           N   tau( 131) = (   0.6309950   0.9911200   0.1126690  )
       132           N   tau( 132) = (   0.5138770   0.1148100   0.1359180  )
       133           N   tau( 133) = (   0.4858890   0.9899460   0.2403500  )
       134           N   tau( 134) = (   0.6344820   0.1332490   0.2588480  )
       135           N   tau( 135) = (   0.5969680   0.9937870   0.3911270  )
       136           N   tau( 136) = (   0.5056560   0.1046710   0.3854600  )
       137           N   tau( 137) = (   0.5179790   0.0057290   0.5098030  )
       138           N   tau( 138) = (   0.6195830   0.1373950   0.4856080  )
       139           N   tau( 139) = (   0.6095920   0.0100700   0.6235050  )
       140           N   tau( 140) = (   0.4753420   0.1092550   0.6267300  )
       141           N   tau( 141) = (   0.5069710   0.0089510   0.7642230  )
       142           N   tau( 142) = (   0.6133140   0.1426940   0.7356280  )
       143           N   tau( 143) = (   0.6325240   0.9936130   0.8663240  )
       144           N   tau( 144) = (   0.4846730   0.1440330   0.9060220  )
       145           N   tau( 145) = (   0.4817640   0.2308840   0.9961410  )
       146           N   tau( 146) = (   0.5997330   0.3768320   0.0097200  )
       147           N   tau( 147) = (   0.6221270   0.2456410   0.1129280  )
       148           N   tau( 148) = (   0.4991130   0.3629680   0.1375790  )
       149           N   tau( 149) = (   0.4980950   0.2690570   0.2411090  )
       150           N   tau( 150) = (   0.6094340   0.3922270   0.2353560  )
       151           N   tau( 151) = (   0.6149690   0.2446710   0.3967290  )
       152           N   tau( 152) = (   0.4963350   0.3652200   0.3923360  )
       153           N   tau( 153) = (   0.4789780   0.2352780   0.5264660  )
       154           N   tau( 154) = (   0.6323040   0.3641310   0.5192240  )
       155           N   tau( 155) = (   0.6035130   0.2280850   0.6207590  )
       156           N   tau( 156) = (   0.4879050   0.3813730   0.6038420  )
       157           N   tau( 157) = (   0.5059050   0.2473120   0.7450820  )
       158           N   tau( 158) = (   0.6142680   0.3884340   0.7602650  )
       159           N   tau( 159) = (   0.6164240   0.2373260   0.8591540  )
       160           N   tau( 160) = (   0.5122240   0.3513370   0.8832670  )
       161           N   tau( 161) = (   0.5007530   0.4881150   0.0110910  )
       162           N   tau( 162) = (   0.6330380   0.6155820   0.0058970  )
       163           N   tau( 163) = (   0.6301570   0.4886260   0.1095520  )
       164           N   tau( 164) = (   0.4918410   0.6372790   0.1081490  )
       165           N   tau( 165) = (   0.5072260   0.5198340   0.2659610  )
       166           N   tau( 166) = (   0.6315700   0.5998390   0.2280710  )
       167           N   tau( 167) = (   0.6296030   0.5027310   0.3867280  )
       168           N   tau( 168) = (   0.5231140   0.6072370   0.3841270  )
       169           N   tau( 169) = (   0.5083260   0.4883150   0.4889140  )
       170           N   tau( 170) = (   0.6287190   0.6125810   0.4802470  )
       171           N   tau( 171) = (   0.6289900   0.5281240   0.6417140  )
       172           N   tau( 172) = (   0.4890400   0.6210170   0.6336460  )
       173           N   tau( 173) = (   0.4848150   0.5065920   0.7644870  )
       174           N   tau( 174) = (   0.5987490   0.6190990   0.7670210  )
       175           N   tau( 175) = (   0.6091360   0.4914230   0.8918660  )
       176           N   tau( 176) = (   0.5119650   0.6179950   0.8951880  )
       177           N   tau( 177) = (   0.4901800   0.7686210   0.0182050  )
       178           N   tau( 178) = (   0.6275630   0.8847440   0.0266650  )
       179           N   tau( 179) = (   0.6419830   0.7234520   0.1148520  )
       180           N   tau( 180) = (   0.4874990   0.8879480   0.1153580  )
       181           N   tau( 181) = (   0.5017750   0.7440600   0.2596950  )
       182           N   tau( 182) = (   0.6317450   0.8656750   0.2569830  )
       183           N   tau( 183) = (   0.6309470   0.7646000   0.3636270  )
       184           N   tau( 184) = (   0.4870470   0.8879290   0.3690310  )
       185           N   tau( 185) = (   0.4919990   0.7457280   0.4872670  )
       186           N   tau( 186) = (   0.6310610   0.8658520   0.5180610  )
       187           N   tau( 187) = (   0.6155370   0.7613430   0.6223490  )
       188           N   tau( 188) = (   0.4795880   0.8986840   0.6086640  )
       189           N   tau( 189) = (   0.5058640   0.7646000   0.7307630  )
       190           N   tau( 190) = (   0.6096250   0.8871870   0.7248010  )
       191           N   tau( 191) = (   0.6324000   0.7645010   0.8639730  )
       192           N   tau( 192) = (   0.5084170   0.8638560   0.8627110  )
       193           N   tau( 193) = (   0.7611610   0.0153830   0.0234840  )
       194           N   tau( 194) = (   0.8934830   0.1412940   0.0184880  )
       195           N   tau( 195) = (   0.8666720   0.9846020   0.1166760  )
       196           N   tau( 196) = (   0.7286920   0.1076340   0.1200860  )
       197           N   tau( 197) = (   0.7506460   0.0032250   0.2563930  )
       198           N   tau( 198) = (   0.8494560   0.0957170   0.2467490  )
       199           N   tau( 199) = (   0.8707650   0.9981310   0.3658070  )
       200           N   tau( 200) = (   0.7399200   0.1157420   0.3860160  )
       201           N   tau( 201) = (   0.7334600   0.0061780   0.4785940  )
       202           N   tau( 202) = (   0.8918500   0.1094920   0.4904610  )
       203           N   tau( 203) = (   0.8650640   0.0123360   0.6534830  )
       204           N   tau( 204) = (   0.7415770   0.1360100   0.6459720  )
       205           N   tau( 205) = (   0.7442530   0.0107170   0.7402200  )
       206           N   tau( 206) = (   0.8694620   0.1324680   0.7644810  )
       207           N   tau( 207) = (   0.8886000   0.0029690   0.8819860  )
       208           N   tau( 208) = (   0.7564400   0.1086810   0.8466680  )
       209           N   tau( 209) = (   0.7414810   0.2675900   0.9865260  )
       210           N   tau( 210) = (   0.8622220   0.3492570   0.9924220  )
       211           N   tau( 211) = (   0.8958640   0.2612560   0.1406840  )
       212           N   tau( 212) = (   0.7579690   0.3872270   0.1387970  )
       213           N   tau( 213) = (   0.7339570   0.2407330   0.2621380  )
       214           N   tau( 214) = (   0.8812700   0.3612470   0.2367480  )
       215           N   tau( 215) = (   0.8893290   0.2750770   0.3695660  )
       216           N   tau( 216) = (   0.7744080   0.3885050   0.3807780  )
       217           N   tau( 217) = (   0.7624130   0.2638530   0.5164370  )
       218           N   tau( 218) = (   0.8931270   0.3775570   0.5227430  )
       219           N   tau( 219) = (   0.8634510   0.2597630   0.6287730  )
       220           N   tau( 220) = (   0.7414460   0.3702670   0.6337130  )
       221           N   tau( 221) = (   0.7612650   0.2578830   0.7651670  )
       222           N   tau( 222) = (   0.8846780   0.3943640   0.7418220  )
       223           N   tau( 223) = (   0.8679190   0.2532830   0.8825230  )
       224           N   tau( 224) = (   0.7318500   0.3709080   0.8938710  )
       225           N   tau( 225) = (   0.7557000   0.5198120   0.0101270  )
       226           N   tau( 226) = (   0.8867590   0.6142250   0.9763480  )
       227           N   tau( 227) = (   0.8814340   0.5091890   0.1335100  )
       228           N   tau( 228) = (   0.7360670   0.6090570   0.1076110  )
       229           N   tau( 229) = (   0.7354940   0.4845020   0.2327710  )
       230           N   tau( 230) = (   0.8544020   0.6101410   0.2437160  )
       231           N   tau( 231) = (   0.8972040   0.4762360   0.3858430  )
       232           N   tau( 232) = (   0.7385770   0.6184600   0.3602100  )
       233           N   tau( 233) = (   0.7609710   0.5021050   0.5253570  )
       234           N   tau( 234) = (   0.8695600   0.6150860   0.4908550  )
       235           N   tau( 235) = (   0.8845660   0.5042120   0.6505240  )
       236           N   tau( 236) = (   0.7547160   0.6011070   0.6322640  )
       237           N   tau( 237) = (   0.7727890   0.4980760   0.7623700  )
       238           N   tau( 238) = (   0.8611950   0.5985730   0.7441240  )
       239           N   tau( 239) = (   0.8642690   0.5124630   0.8696640  )
       240           N   tau( 240) = (   0.7203650   0.6296790   0.8873830  )
       241           N   tau( 241) = (   0.7590600   0.7261570   0.0152330  )
       242           N   tau( 242) = (   0.8898070   0.8542130   0.9838160  )
       243           N   tau( 243) = (   0.8845740   0.7602130   0.1531120  )
       244           N   tau( 244) = (   0.7421260   0.8948650   0.1175120  )
       245           N   tau( 245) = (   0.7347290   0.7616640   0.2414760  )
       246           N   tau( 246) = (   0.8947330   0.8601150   0.2275120  )
       247           N   tau( 247) = (   0.9018260   0.7237220   0.3670600  )
       248           N   tau( 248) = (   0.7419490   0.8720390   0.3478160  )
       249           N   tau( 249) = (   0.7575510   0.7608050   0.5031480  )
       250           N   tau( 250) = (   0.8703440   0.8525920   0.4877320  )
       251           N   tau( 251) = (   0.8890100   0.7699980   0.6313990  )
       252           N   tau( 252) = (   0.7354860   0.8846290   0.6232550  )
       253           N   tau( 253) = (   0.7412510   0.7580940   0.7771730  )
       254           N   tau( 254) = (   0.8848530   0.8867090   0.7410140  )
       255           N   tau( 255) = (   0.8629980   0.7581270   0.8775150  )
       256           N   tau( 256) = (   0.7354000   0.8683910   0.8504170  )

     number of k points=     4  Marzari-Vanderbilt smearing, width (Ry)=  0.0500
                       cart. coord. in units 2pi/alat
        k(    1) = (   0.2500000   0.2500000   0.2500000), wk =   0.5000000
        k(    2) = (  -0.2500000  -0.2500000   0.2500000), wk =   0.5000000
        k(    3) = (  -0.2500000   0.2500000  -0.2500000), wk =   0.5000000
        k(    4) = (   0.2500000  -0.2500000  -0.2500000), wk =   0.5000000

     Dense  grid:  1439361 G-vectors     FFT dimensions: ( 144, 144, 144)

     Smooth grid:   794839 G-vectors     FFT dimensions: ( 120, 120, 120)

     Largest allocated arrays     est. size (Mb)     dimensions
        Kohn-Sham Wavefunctions        21.93 Mb     (   3117,  461)
        NL pseudopotentials            97.41 Mb     (   3117, 2048)
        Each V/rho on FFT grid          1.58 Mb     ( 103680)
        Each G-vector array             0.34 Mb     (  44980)
        G-vector shells                 0.03 Mb     (   3845)
     Largest temporary arrays     est. size (Mb)     dimensions
        Auxiliary wavefunctions        87.70 Mb     (   3117, 1844)
        Each subspace H/S matrix       51.89 Mb     (1844,1844)
        Each <psi_i|beta_j> matrix     14.41 Mb     (   2048,  461)
        Arrays for rho mixing          12.66 Mb     ( 103680,   8)

     Check: negative/imaginary core charge=   -0.000006    0.000000

     Initial potential from superposition of free atoms

     starting charge  767.41368, renormalised to  768.00000
     Starting wfc are 1024 randomized atomic wfcs
     Checking if some PAW data can be deallocated... 

     total cpu time spent up to now is       96.1 secs

     Self-consistent Calculation

     iteration #  1     ecut=    35.00 Ry     beta=0.70
     Davidson diagonalization with overlap
     ethr =  1.00E-02,  avg # of iterations =  3.0

     total cpu time spent up to now is      282.9 secs

     total energy              =  -10103.89761305 Ry
     Harris-Foulkes estimate   =  -10106.06545256 Ry
     estimated scf accuracy    <       8.94280681 Ry

     iteration #  2     ecut=    35.00 Ry     beta=0.70
     Davidson diagonalization with overlap
     ethr =  1.16E-03,  avg # of iterations =  2.0

     total cpu time spent up to now is      399.2 secs

     total energy              =  -10103.55314372 Ry
     Harris-Foulkes estimate   =  -10104.57236706 Ry
     estimated scf accuracy    <       2.34508088 Ry

     iteration #  3     ecut=    35.00 Ry     beta=0.70
     Davidson diagonalization with overlap
     ethr =  3.05E-04,  avg # of iterations =  5.2

     total cpu time spent up to now is      643.3 secs

     total energy              =  -10104.28749668 Ry
     Harris-Foulkes estimate   =  -10104.39195958 Ry
     estimated scf accuracy    <       0.56299124 Ry

     iteration #  4     ecut=    35.00 Ry     beta=0.70
     Davidson diagonalization with overlap
     ethr =  7.33E-05,  avg # of iterations =  3.0

     total cpu time spent up to now is      768.4 secs

     total energy              =  -10104.25686191 Ry
     Harris-Foulkes estimate   =  -10104.31803104 Ry
     estimated scf accuracy    <       0.18036866 Ry

     iteration #  5     ecut=    35.00 Ry     beta=0.70
     Davidson diagonalization with overlap
     ethr =  2.35E-05,  avg # of iterations =  8.8

     total cpu time spent up to now is     1039.8 secs

     total energy              =  -10104.30130465 Ry
     Harris-Foulkes estimate   =  -10104.30441509 Ry
     estimated scf accuracy    <       0.02453286 Ry

     iteration #  6     ecut=    35.00 Ry     beta=0.70
     Davidson diagonalization with overlap
     ethr =  3.19E-06,  avg # of iterations = 13.0

     total cpu time spent up to now is     1273.7 secs

     total energy              =  -10104.29992585 Ry
     Harris-Foulkes estimate   =  -10104.30304007 Ry
     estimated scf accuracy    <       0.00992555 Ry

     iteration #  7     ecut=    35.00 Ry     beta=0.70
     Davidson diagonalization with overlap
     ethr =  1.29E-06,  avg # of iterations = 10.8

     total cpu time spent up to now is     1548.7 secs

     total energy              =  -10104.30206644 Ry
     Harris-Foulkes estimate   =  -10104.30240607 Ry
     estimated scf accuracy    <       0.00158977 Ry

     iteration #  8     ecut=    35.00 Ry     beta=0.70
     Davidson diagonalization with overlap
     ethr =  2.07E-07,  avg # of iterations =  3.0

     total cpu time spent up to now is     1689.1 secs

     total energy              =  -10104.30223579 Ry
     Harris-Foulkes estimate   =  -10104.30227204 Ry
     estimated scf accuracy    <       0.00015129 Ry

     iteration #  9     ecut=    35.00 Ry     beta=0.70
     Davidson diagonalization with overlap
     ethr =  1.97E-08,  avg # of iterations =  5.5

     total cpu time spent up to now is     1977.4 secs

     total energy              =  -10104.30229864 Ry
     Harris-Foulkes estimate   =  -10104.30230420 Ry
     estimated scf accuracy    <       0.00004056 Ry

     iteration # 10     ecut=    35.00 Ry     beta=0.70
     Davidson diagonalization with overlap
     ethr =  5.28E-09,  avg # of iterations =  1.8

     total cpu time spent up to now is     2088.5 secs

     total energy              =  -10104.30229698 Ry
     Harris-Foulkes estimate   =  -10104.30230022 Ry
     estimated scf accuracy    <       0.00001359 Ry

     iteration # 11     ecut=    35.00 Ry     beta=0.70
     Davidson diagonalization with overlap
     ethr =  1.77E-09,  avg # of iterations =  3.8

     total cpu time spent up to now is     2245.4 secs

     End of self-consistent calculation

          k = 0.2500 0.2500 0.2500 ( 99252 PWs)   bands (ev):

    -3.5940  -3.4212  -3.3336  -3.2200  -3.1557  -3.0275  -2.9916  -2.8711
    -2.7734  -2.6976  -2.6407  -2.5677  -2.5259  -2.4705  -2.4514  -2.3775
    -2.2870  -2.1995  -2.1547  -2.1032  -2.0512  -2.0139  -1.9259  -1.8390
    -1.7950  -1.7708  -1.7026  -1.6379  -1.5933  -1.5525  -1.5290  -1.4770
    -1.4421  -1.4272  -1.3402  -1.2774  -1.2279  -1.2016  -1.1589  -1.1116
    -1.0331  -0.9626  -0.9126  -0.8696  -0.8499  -0.8258  -0.7749  -0.7070
    -0.6925  -0.6184  -0.5714  -0.5275  -0.5025  -0.4814  -0.4597  -0.3512
    -0.3238  -0.3107  -0.2240  -0.2050  -0.1934  -0.1387  -0.1036  -0.0766
    -0.0193  -0.0001   0.0478   0.0634   0.1201   0.1530   0.1825   0.2274
     0.2721   0.2808   0.3178   0.3830   0.3995   0.4326   0.4512   0.5125
     0.5374   0.5728   0.6231   0.6446   0.6853   0.7019   0.7598   0.7926
     0.8143   0.8516   0.8674   0.9117   0.9637   0.9877   1.0179   1.0489
     1.0878   1.1097   1.1486   1.1848   1.2169   1.2448   1.2882   1.3143
     1.3444   1.3899   1.4017   1.4288   1.4414   1.4847   1.5222   1.5379
     1.5786   1.6034   1.6460   1.6758   1.6923   1.7288   1.7662   1.7854
     1.8153   1.8559   1.8782   1.9368   1.9493   1.9854   2.0215   2.0334
     2.0798   2.1149   2.1341   2.1525   2.1742   2.2049   2.2416   2.2645
     2.3198   2.3409   2.3641   2.3880   2.4251   2.4557   2.4743   2.5025
     2.5161   2.5347   2.5894   2.5967   2.6293   2.6480   2.6790   2.7002
     2.7208   2.7338   2.7620   2.7857   2.8013   2.8285   2.8597   2.8737
     2.9151   2.9357   2.9650   2.9935   3.0125   3.0371   3.0603   3.1125
     3.1267   3.1490   3.1680   3.2007   3.2319   3.2415   3.2578   3.3120
     3.3267   3.3418   3.3649   3.3739   3.4140   3.4399   3.4768   3.5053
     3.5470   3.5695   3.5969   3.6119   3.6393   3.6473   3.6779   3.7061
     3.7299   3.7685   3.7959   3.8131   3.8358   3.8562   3.8754   3.8821
     3.9083   3.9392   3.9501   3.9872   4.0041   4.0372   4.0539   4.0687
     4.1077   4.1304   4.1628   4.1794   4.2056   4.2364   4.2705   4.2828
     4.2999   4.3130   4.3405   4.3716   4.3982   4.4159   4.4316   4.4561
     4.4766   4.5085   4.5222   4.5532   4.5817   4.6046   4.6079   4.6422
     4.6608   4.6744   4.6900   4.7201   4.7504   4.7891   4.8019   4.8153
     4.8359   4.8615   4.8730   4.8938   4.9301   4.9520   4.9654   4.9765
     5.0019   5.0139   5.0151   5.0501   5.0700   5.0977   5.1097   5.1188
     5.1464   5.1662   5.1944   5.2106   5.2403   5.2578   5.2691   5.2872
     5.3124   5.3288   5.3511   5.3705   5.4057   5.4179   5.4445   5.4735
     5.4955   5.5065   5.5246   5.5420   5.5642   5.5892   5.6002   5.6216
     5.6453   5.6622   5.6846   5.7008   5.7442   5.7568   5.7800   5.8176
     5.8387   5.8627   5.8727   5.9095   5.9332   5.9435   5.9710   6.0018
     6.0144   6.0423   6.0690   6.1027   6.1135   6.1471   6.1701   6.1849
     6.2156   6.2393   6.2610   6.2928   6.3104   6.3493   6.3522   6.3897
     6.4018   6.4172   6.4440   6.4579   6.4871   6.5225   6.5312   6.5500
     6.5742   6.5890   6.6142   6.6497   6.6671   6.6797   6.7104   6.7191
     6.7338   6.7490   6.7742   6.7817   6.8063   6.8235   6.8434   6.8555
     6.8709   6.8955   6.9081   6.9324   6.9349   6.9731   6.9916   7.0079
     7.0167   7.0339   7.0535   7.0762   7.1082   7.1154   7.1377   7.1573
     7.1660   7.1814   7.2096   7.2203   7.2368   7.2451   7.2847   7.2964
     7.3229   7.3355   7.3635   7.3974   7.4045   7.4209   7.4463   7.4594
     7.4802   7.5147   7.5367   7.5536   7.5696   7.5807   7.6185   7.6398
     7.6535   7.6689   7.6827   7.6950   7.7230   7.7437   7.7565   7.7866
     7.8138   7.8247   7.8420   7.8532   7.8691   7.8981   7.9175   7.9519
     7.9812   7.9889   8.0151   8.0203   8.0462   8.0631   8.0796   8.0904
     8.1212   8.1487   8.1672   8.1822   8.2013   8.2282   8.2503   8.2621
     8.2793   8.2979   8.3183   8.3246   8.3374   8.3682   8.3799   8.4062
     8.4214   8.4396   8.4487   8.4667   8.4920   8.5044   8.5242   8.5463
     8.5583   8.5755   8.6021   8.6187   8.6391   8.6486   8.6644   8.6887
     8.6940   8.7095   8.7438   8.7452   8.7698   8.7863   8.7988   8.8230
     8.8588   8.8742   8.8946   8.9171   8.9463   8.9566   8.9687   9.0000
     9.0279   9.0386   9.0624   9.0739   9.0944   9.1057   9.1148   9.1459
     9.1639   9.1847   9.1930   9.2177   9.2362

          k =-0.2500-0.2500 0.2500 ( 99252 PWs)   bands (ev):

    -3.5930  -3.4329  -3.3105  -3.2318  -3.1450  -3.0572  -2.9737  -2.8786
    -2.7583  -2.7119  -2.6382  -2.5942  -2.5128  -2.4649  -2.4106  -2.3395
    -2.3042  -2.2567  -2.1992  -2.1028  -2.0224  -1.9358  -1.9090  -1.8805
    -1.8019  -1.7692  -1.7241  -1.6497  -1.6390  -1.5826  -1.5236  -1.4862
    -1.4313  -1.3621  -1.3196  -1.2699  -1.2240  -1.2076  -1.1632  -1.0831
    -1.0474  -0.9915  -0.9113  -0.8716  -0.8336  -0.8054  -0.7334  -0.7175
    -0.6814  -0.6265  -0.5956  -0.5455  -0.5268  -0.4865  -0.4291  -0.3779
    -0.3464  -0.2790  -0.2341  -0.2012  -0.1831  -0.1493  -0.1232  -0.0878
    -0.0533  -0.0107   0.0304   0.0907   0.1133   0.1675   0.1820   0.2329
     0.2520   0.2913   0.3173   0.3702   0.3978   0.4544   0.4649   0.5106
     0.5525   0.5713   0.6189   0.6729   0.6985   0.7451   0.7671   0.7935
     0.8398   0.8645   0.9023   0.9228   0.9630   0.9799   1.0105   1.0478
     1.0849   1.1130   1.1296   1.1770   1.2110   1.2292   1.2599   1.3090
     1.3369   1.3739   1.3837   1.4195   1.4562   1.4810   1.5056   1.5385
     1.5629   1.6107   1.6463   1.6707   1.7022   1.7244   1.7564   1.7692
     1.7927   1.8394   1.8959   1.9252   1.9502   1.9562   2.0060   2.0348
     2.0845   2.1048   2.1325   2.1584   2.1940   2.2141   2.2532   2.2757
     2.3035   2.3319   2.3727   2.3845   2.4159   2.4325   2.4924   2.5085
     2.5315   2.5508   2.5888   2.6041   2.6438   2.6660   2.7021   2.7178
     2.7380   2.7555   2.7754   2.7855   2.8337   2.8561   2.8777   2.9042
     2.9286   2.9477   2.9712   2.9936   3.0182   3.0501   3.0522   3.0720
     3.1006   3.1264   3.1615   3.1809   3.2108   3.2355   3.2560   3.2884
     3.3011   3.3303   3.3681   3.3827   3.4188   3.4430   3.4762   3.5002
     3.5147   3.5394   3.5639   3.6013   3.6364   3.6691   3.6959   3.7130
     3.7475   3.7574   3.7912   3.8043   3.8289   3.8532   3.8753   3.8815
     3.9196   3.9504   3.9724   3.9971   4.0268   4.0569   4.0782   4.1000
     4.1132   4.1557   4.1782   4.1912   4.2187   4.2316   4.2534   4.2638
     4.2850   4.3034   4.3312   4.3607   4.3836   4.3981   4.4154   4.4305
     4.4539   4.4759   4.5060   4.5100   4.5367   4.5672   4.5951   4.6148
     4.6306   4.6731   4.7031   4.7383   4.7610   4.7801   4.7936   4.8078
     4.8335   4.8491   4.8834   4.8992   4.9167   4.9501   4.9595   4.9667
     5.0230   5.0310   5.0608   5.0694   5.0942   5.1048   5.1263   5.1480
     5.1683   5.1826   5.2135   5.2304   5.2471   5.2624   5.2772   5.3111
     5.3304   5.3578   5.3658   5.3776   5.4185   5.4348   5.4682   5.4750
     5.4966   5.5062   5.5272   5.5455   5.5618   5.5835   5.6006   5.6261
     5.6460   5.6727   5.6861   5.7114   5.7547   5.7673   5.7889   5.8179
     5.8448   5.8577   5.8901   5.8967   5.9236   5.9436   5.9652   6.0027
     6.0366   6.0456   6.0641   6.0822   6.0961   6.1155   6.1575   6.1779
     6.2007   6.2247   6.2423   6.2741   6.2914   6.3244   6.3431   6.3490
     6.3824   6.4104   6.4230   6.4572   6.4871   6.4946   6.5417   6.5555
     6.5722   6.5824   6.6119   6.6424   6.6484   6.6759   6.7023   6.7146
     6.7344   6.7581   6.7655   6.7756   6.8096   6.8249   6.8403   6.8692
     6.8800   6.8860   6.9181   6.9375   6.9578   6.9800   6.9906   7.0019
     7.0246   7.0485   7.0639   7.0868   7.0961   7.1053   7.1182   7.1565
     7.1664   7.1940   7.2188   7.2228   7.2514   7.2715   7.2819   7.3064
     7.3271   7.3433   7.3631   7.3949   7.4093   7.4304   7.4486   7.4563
     7.4904   7.5244   7.5303   7.5528   7.5751   7.5881   7.6106   7.6208
     7.6454   7.6504   7.6901   7.7072   7.7173   7.7276   7.7556   7.8009
     7.8160   7.8243   7.8396   7.8550   7.8720   7.8831   7.9305   7.9472
     7.9622   7.9987   8.0115   8.0174   8.0547   8.0601   8.0828   8.1018
     8.1110   8.1459   8.1716   8.1809   8.1958   8.2208   8.2430   8.2507
     8.2711   8.2948   8.3123   8.3339   8.3479   8.3648   8.3809   8.3885
     8.4335   8.4406   8.4668   8.4805   8.5046   8.5087   8.5200   8.5384
     8.5722   8.5924   8.6041   8.6204   8.6290   8.6443   8.6674   8.6909
     8.7056   8.7158   8.7333   8.7468   8.7796   8.7979   8.8163   8.8245
     8.8464   8.8589   8.8962   8.9287   8.9389   8.9475   8.9940   9.0085
     9.0234   9.0395   9.0620   9.0892   9.0993   9.1206   9.1325   9.1594
     9.1646   9.1911   9.2048   9.2412   9.2489

          k =-0.2500 0.2500-0.2500 ( 99252 PWs)   bands (ev):

    -3.5949  -3.4196  -3.3305  -3.2166  -3.1600  -3.0502  -2.9849  -2.8538
    -2.7625  -2.7204  -2.6163  -2.5969  -2.5144  -2.4870  -2.4151  -2.3547
    -2.2874  -2.2492  -2.1814  -2.1082  -2.0505  -1.9711  -1.9190  -1.8361
    -1.8100  -1.7563  -1.7061  -1.6553  -1.6096  -1.5737  -1.5364  -1.4530
    -1.4307  -1.3664  -1.3219  -1.2900  -1.2513  -1.2101  -1.1599  -1.0963
    -1.0337  -1.0104  -0.9318  -0.8781  -0.8606  -0.8196  -0.7687  -0.7241
    -0.6378  -0.6106  -0.5864  -0.5489  -0.4994  -0.4562  -0.4022  -0.3629
    -0.3342  -0.2841  -0.2150  -0.2121  -0.1887  -0.1413  -0.1154  -0.0553
    -0.0307  -0.0036   0.0439   0.0673   0.0853   0.1446   0.1839   0.2024
     0.2328   0.3006   0.3207   0.3568   0.3783   0.4094   0.4414   0.5054
     0.5333   0.5556   0.6007   0.6636   0.6776   0.7116   0.7650   0.8041
     0.8305   0.8790   0.9164   0.9573   0.9805   1.0150   1.0438   1.0868
     1.1025   1.1238   1.1677   1.1938   1.2310   1.2607   1.2807   1.2985
     1.3503   1.3584   1.3756   1.4122   1.4460   1.4728   1.4956   1.5489
     1.5716   1.6048   1.6323   1.6660   1.6887   1.7346   1.7494   1.7841
     1.8010   1.8444   1.8736   1.8936   1.9109   1.9848   1.9957   2.0219
     2.0670   2.0732   2.1070   2.1372   2.1759   2.2288   2.2468   2.2985
     2.3037   2.3195   2.3546   2.3890   2.4097   2.4349   2.4858   2.4972
     2.5391   2.5530   2.5728   2.5942   2.6237   2.6596   2.6668   2.7210
     2.7348   2.7720   2.7877   2.8183   2.8433   2.8761   2.9076   2.9188
     2.9320   2.9535   2.9813   2.9955   3.0252   3.0376   3.0536   3.0867
     3.1067   3.1473   3.1666   3.2089   3.2429   3.2489   3.2651   3.2800
     3.3273   3.3591   3.3792   3.4078   3.4384   3.4573   3.4697   3.4909
     3.4999   3.5298   3.5718   3.5977   3.6396   3.6456   3.6730   3.7011
     3.7395   3.7440   3.7696   3.7904   3.8009   3.8361   3.8743   3.8927
     3.9210   3.9486   3.9704   3.9906   4.0081   4.0451   4.0654   4.0938
     4.1170   4.1289   4.1575   4.1827   4.2028   4.2220   4.2300   4.2568
     4.2775   4.3123   4.3495   4.3606   4.3843   4.3975   4.4174   4.4410
     4.4707   4.4853   4.4955   4.5247   4.5515   4.5697   4.5956   4.6300
     4.6565   4.6879   4.6984   4.7314   4.7595   4.7728   4.7924   4.7990
     4.8329   4.8579   4.8939   4.9042   4.9291   4.9457   4.9568   4.9944
     5.0060   5.0243   5.0393   5.0734   5.1041   5.1177   5.1349   5.1652
     5.1716   5.1800   5.2006   5.2344   5.2493   5.2627   5.2735   5.3004
     5.3259   5.3467   5.3650   5.3767   5.3968   5.4313   5.4494   5.4780
     5.4909   5.5079   5.5245   5.5405   5.5538   5.5713   5.6093   5.6349
     5.6502   5.6878   5.6959   5.7217   5.7442   5.7731   5.7889   5.8074
     5.8414   5.8694   5.8893   5.9065   5.9425   5.9707   5.9824   5.9848
     6.0221   6.0468   6.0678   6.0903   6.1176   6.1354   6.1581   6.1725
     6.2002   6.2324   6.2533   6.2715   6.2970   6.3250   6.3445   6.3648
     6.3835   6.4078   6.4254   6.4538   6.5059   6.5181   6.5313   6.5496
     6.5665   6.5971   6.6103   6.6310   6.6404   6.6641   6.6816   6.6945
     6.7092   6.7384   6.7495   6.7658   6.8005   6.8296   6.8473   6.8618
     6.8825   6.8980   6.9249   6.9307   6.9478   6.9623   6.9790   7.0006
     7.0316   7.0399   7.0499   7.0641   7.0833   7.1032   7.1266   7.1426
     7.1676   7.1951   7.1996   7.2309   7.2610   7.2729   7.2963   7.3104
     7.3310   7.3459   7.3646   7.3889   7.3929   7.4341   7.4385   7.4802
     7.4920   7.5199   7.5256   7.5541   7.5726   7.5983   7.6106   7.6220
     7.6522   7.6771   7.6800   7.7025   7.7318   7.7540   7.7718   7.7890
     7.8058   7.8215   7.8564   7.8687   7.8901   7.8939   7.9231   7.9414
     7.9707   7.9842   8.0109   8.0285   8.0447   8.0685   8.0941   8.1111
     8.1208   8.1424   8.1587   8.1705   8.2052   8.2185   8.2382   8.2718
     8.2896   8.3009   8.3085   8.3323   8.3591   8.3690   8.3830   8.4059
     8.4178   8.4296   8.4489   8.4562   8.4815   8.5061   8.5247   8.5496
     8.5659   8.5835   8.5994   8.6149   8.6305   8.6405   8.6588   8.6858
     8.7078   8.7254   8.7340   8.7444   8.7575   8.7852   8.8067   8.8235
     8.8557   8.8728   8.8990   8.9165   8.9459   8.9611   8.9794   9.0074
     9.0303   9.0373   9.0517   9.0771   9.1005   9.1118   9.1413   9.1537
     9.1721   9.1853   9.2046   9.2251   9.2478

          k = 0.2500-0.2500-0.2500 ( 99252 PWs)   bands (ev):

    -3.5905  -3.4472  -3.2980  -3.2056  -3.1673  -3.0519  -2.9809  -2.8808
    -2.8003  -2.6905  -2.6586  -2.5627  -2.4901  -2.4555  -2.4081  -2.3542
    -2.2779  -2.2356  -2.1928  -2.1148  -2.1028  -1.9750  -1.9079  -1.8556
    -1.8169  -1.7379  -1.7211  -1.6585  -1.6000  -1.5728  -1.5194  -1.4780
    -1.4403  -1.3716  -1.3133  -1.2926  -1.2520  -1.1709  -1.1433  -1.0899
    -1.0328  -0.9895  -0.9556  -0.8972  -0.8576  -0.7938  -0.7608  -0.6824
    -0.6498  -0.6303  -0.5919  -0.5178  -0.4960  -0.4602  -0.4024  -0.3979
    -0.3573  -0.3076  -0.2720  -0.2448  -0.1791  -0.1424  -0.0988  -0.0733
    -0.0449   0.0020   0.0449   0.0773   0.1009   0.1247   0.1762   0.2348
     0.2687   0.3107   0.3330   0.3570   0.3948   0.4215   0.4485   0.4915
     0.5274   0.5840   0.6132   0.6655   0.6781   0.7181   0.7468   0.8098
     0.8277   0.8654   0.9154   0.9317   0.9874   1.0124   1.0626   1.1120
     1.1241   1.1442   1.1622   1.1866   1.2153   1.2414   1.2743   1.2898
     1.3170   1.3718   1.4004   1.4179   1.4514   1.4583   1.4817   1.5156
     1.5789   1.6021   1.6288   1.6785   1.6917   1.7241   1.7326   1.7623
     1.8009   1.8365   1.8724   1.8880   1.9430   1.9581   1.9971   2.0188
     2.0615   2.0884   2.1108   2.1582   2.1916   2.2165   2.2501   2.2714
     2.3124   2.3511   2.3812   2.4041   2.4174   2.4503   2.4861   2.5065
     2.5346   2.5578   2.5772   2.6015   2.6251   2.6464   2.6642   2.6854
     2.7241   2.7367   2.7700   2.8024   2.8360   2.8486   2.8559   2.8967
     2.9313   2.9444   2.9770   2.9959   3.0143   3.0305   3.0752   3.1038
     3.1243   3.1357   3.1803   3.2095   3.2316   3.2571   3.3022   3.3277
     3.3634   3.3744   3.4102   3.4177   3.4286   3.4642   3.4980   3.5284
     3.5315   3.5542   3.5878   3.6216   3.6364   3.6552   3.6698   3.7036
     3.7225   3.7390   3.7601   3.7755   3.8053   3.8544   3.8666   3.8880
     3.9196   3.9386   3.9704   3.9823   3.9988   4.0137   4.0437   4.0581
     4.0939   4.1392   4.1499   4.1901   4.2027   4.2110   4.2543   4.2605
     4.2851   4.3082   4.3238   4.3408   4.3771   4.3966   4.4175   4.4391
     4.4619   4.4851   4.4965   4.5186   4.5476   4.5610   4.5816   4.6241
     4.6467   4.6704   4.6883   4.7078   4.7415   4.7650   4.7811   4.8059
     4.8176   4.8584   4.8802   4.8994   4.9025   4.9388   4.9622   4.9891
     5.0154   5.0235   5.0387   5.0917   5.1052   5.1162   5.1249   5.1603
     5.1724   5.1997   5.2214   5.2307   5.2574   5.2730   5.2883   5.3189
     5.3282   5.3417   5.3624   5.3898   5.4076   5.4301   5.4516   5.4699
     5.4869   5.5101   5.5219   5.5536   5.5761   5.5960   5.6244   5.6475
     5.6595   5.6713   5.7106   5.7307   5.7437   5.7692   5.7808   5.8250
     5.8463   5.8742   5.9043   5.9135   5.9366   5.9610   5.9901   6.0113
     6.0311   6.0448   6.0670   6.0743   6.1179   6.1260   6.1798   6.2022
     6.2147   6.2433   6.2561   6.2719   6.2998   6.3207   6.3337   6.3581
     6.3857   6.4103   6.4282   6.4720   6.4779   6.5189   6.5321   6.5538
     6.5732   6.6045   6.6166   6.6336   6.6477   6.6637   6.6905   6.7024
     6.7148   6.7434   6.7546   6.7819   6.7955   6.8188   6.8299   6.8460
     6.8734   6.8882   6.9044   6.9337   6.9411   6.9721   6.9909   7.0079
     7.0249   7.0341   7.0674   7.0758   7.0940   7.1100   7.1354   7.1449
     7.1696   7.1845   7.1974   7.2047   7.2385   7.2484   7.2682   7.2885
     7.3108   7.3334   7.3520   7.3859   7.3951   7.4110   7.4391   7.4675
     7.4846   7.5017   7.5218   7.5377   7.5540   7.5753   7.5901   7.6048
     7.6272   7.6503   7.6709   7.6908   7.7113   7.7284   7.7673   7.7946
     7.7974   7.8153   7.8372   7.8636   7.8907   7.9220   7.9379   7.9560
     7.9709   7.9920   8.0260   8.0423   8.0572   8.0722   8.1036   8.1144
     8.1326   8.1422   8.1873   8.1965   8.2178   8.2416   8.2463   8.2677
     8.2914   8.3032   8.3112   8.3323   8.3538   8.3654   8.3772   8.4032
     8.4160   8.4302   8.4572   8.4754   8.4930   8.5033   8.5161   8.5411
     8.5623   8.5752   8.5988   8.6135   8.6283   8.6470   8.6742   8.6969
     8.7189   8.7360   8.7549   8.7771   8.7954   8.8026   8.8270   8.8417
     8.8630   8.8826   8.8959   8.9091   8.9463   8.9696   8.9897   9.0008
     9.0054   9.0436   9.0654   9.0827   9.1026   9.1312   9.1461   9.1674
     9.1698   9.1919   9.2074   9.2326   9.2430

     the Fermi energy is     7.7919 ev

!    total energy              =  -10104.30229906 Ry
     Harris-Foulkes estimate   =  -10104.30229913 Ry
     estimated scf accuracy    <       0.00000008 Ry

     total all-electron energy =   -124316.854437 Ry

     The total energy is the sum of the following terms:

     one-electron contribution =     753.82562857 Ry
     hartree contribution      =      31.00509160 Ry
     xc contribution           =    -783.50525864 Ry
     ewald contribution        =   -1336.69173484 Ry
     one-center paw contrib.   =   -8768.93307392 Ry
     smearing contrib. (-TS)   =      -0.00295182 Ry

     convergence has been achieved in  11 iterations

     Forces acting on atoms (Ry/au):

     atom    1 type  1   force =    -0.02337372   -0.05541888    0.04052355
     atom    2 type  1   force =     0.04969217    0.02542298    0.01210824
     atom    3 type  1   force =    -0.02665842   -0.00259028   -0.10135574
     atom    4 type  1   force =     0.03254404   -0.06340510    0.01170788
     atom    5 type  1   force =    -0.00518928   -0.03068704   -0.01633997
     atom    6 type  1   force =    -0.18945269    0.15071285    0.04587840
     atom    7 type  1   force =    -0.05595276   -0.03004630   -0.01496036
     atom    8 type  1   force =     0.11822339   -0.23007824   -0.01636643
     atom    9 type  1   force =    -0.05900917    0.06049169    0.02362680
     atom   10 type  1   force =    -0.00376861    0.00379828    0.00929716
     atom   11 type  1   force =    -0.07478199    0.10080484   -0.10437034
     atom   12 type  1   force =     0.11076985    0.03641448   -0.09898978
     atom   13 type  1   force =     0.06433324   -0.07184126   -0.00524255
     atom   14 type  1   force =    -0.01996077    0.00538440   -0.03390297
     atom   15 type  1   force =    -0.02515178    0.02951481    0.07010745
     atom   16 type  1   force =    -0.00108590    0.00829873    0.01514425
     atom   17 type  1   force =     0.04604520    0.08297812    0.00210787
     atom   18 type  1   force =    -0.02851420    0.07565546   -0.13709157
     atom   19 type  1   force =     0.02458857   -0.09275605    0.09018798
     atom   20 type  1   force =     0.05808512    0.11814917   -0.03238616
     atom   21 type  1   force =    -0.01643910    0.04752220   -0.07152099
     atom   22 type  1   force =     0.10721507    0.08581123   -0.16110102
     atom   23 type  1   force =     0.05784994   -0.08634404    0.11819000
     atom   24 type  1   force =    -0.13942366    0.05496684    0.14285952
     atom   25 type  1   force =    -0.03908583    0.03159781   -0.00821321
     atom   26 type  1   force =    -0.02002289   -0.03372787   -0.08647557
     atom   27 type  1   force =     0.01029070   -0.04189643    0.06501643
     atom   28 type  1   force =     0.17326067    0.01814473    0.01127593
     atom   29 type  1   force =     0.05154979   -0.06558895   -0.01791645
     atom   30 type  1   force =     0.08588989    0.10228492   -0.20145381
     atom   31 type  1   force =    -0.06393664   -0.16871698    0.09465597
     atom   32 type  1   force =    -0.07581598   -0.02678469    0.16088211
     atom   33 type  1   force =     0.03574716    0.01339477    0.03248527
     atom   34 type  1   force =    -0.02981616   -0.06679976    0.11854400
     atom   35 type  1   force =    -0.03757366   -0.03913645   -0.02588191
     atom   36 type  1   force =    -0.00131659   -0.01084076   -0.00061895
     atom   37 type  1   force =    -0.05706298   -0.04690793   -0.01076235
     atom   38 type  1   force =    -0.11896011    0.24409555   -0.05588284
     atom   39 type  1   force =    -0.33195105   -0.23209636    0.16357925
     atom   40 type  1   force =     0.05489940   -0.00054602    0.01741499
     atom   41 type  1   force =    -0.03381253    0.01829781   -0.02417350
     atom   42 type  1   force =    -0.04967207    0.08354973    0.01646826
     atom   43 type  1   force =    -0.11329841    0.02585922    0.09325237
     atom   44 type  1   force =     0.21629319   -0.31627668   -0.05980922
     atom   45 type  1   force =     0.15989968    0.20573991   -0.03182042
     atom   46 type  1   force =    -0.16237377    0.02013192   -0.08461041
     atom   47 type  1   force =    -0.08306181    0.06327984   -0.10639020
     atom   48 type  1   force =     0.04568077    0.05124438   -0.04014789
     atom   49 type  1   force =     0.25723887    0.05896411    0.13933333
     atom   50 type  1   force =    -0.03428219    0.00533061   -0.05813647
     atom   51 type  1   force =     0.04503609   -0.10478743   -0.02952161
     atom   52 type  1   force =    -0.05491784    0.07256533   -0.02720670
     atom   53 type  1   force =    -0.01614621   -0.11448511    0.03653756
     atom   54 type  1   force =     0.09288147    0.06138953    0.02261588
     atom   55 type  1   force =     0.02445027   -0.04152794   -0.06556055
     atom   56 type  1   force =     0.03236571   -0.02371550   -0.03689872
     atom   57 type  1   force =    -0.10376422   -0.13740094    0.01832919
     atom   58 type  1   force =     0.14809467    0.07995837    0.04168097
     atom   59 type  1   force =     0.02011156    0.04117393   -0.00627217
     atom   60 type  1   force =     0.02442957    0.04057293   -0.03703350
     atom   61 type  1   force =     0.05376871    0.07594074    0.17815923
     atom   62 type  1   force =    -0.18788792   -0.20278897    0.13131790
     atom   63 type  1   force =    -0.08290827   -0.05215646   -0.07854342
     atom   64 type  1   force =     0.04093297   -0.01496363   -0.00623320
     atom   65 type  1   force =    -0.04892919   -0.01633530    0.04419543
     atom   66 type  1   force =     0.06193085   -0.03188877   -0.01555764
     atom   67 type  1   force =    -0.02671380    0.04248991    0.04700138
     atom   68 type  1   force =     0.13889831    0.04514458   -0.18139908
     atom   69 type  1   force =     0.03962944   -0.07947675   -0.00425979
     atom   70 type  1   force =    -0.00420121    0.06737711    0.09823212
     atom   71 type  1   force =     0.02697956    0.00427969    0.02834649
     atom   72 type  1   force =    -0.03077429    0.07060672    0.07247628
     atom   73 type  1   force =     0.16344630    0.12322613    0.04499017
     atom   74 type  1   force =    -0.05792631    0.04088460   -0.17269747
     atom   75 type  1   force =    -0.05512453   -0.12963228    0.07199459
     atom   76 type  1   force =    -0.05496966    0.00416476    0.04594508
     atom   77 type  1   force =    -0.08410665    0.03131916   -0.06605474
     atom   78 type  1   force =    -0.03085120    0.00830659    0.02569831
     atom   79 type  1   force =     0.01069012    0.10369059    0.16673666
     atom   80 type  1   force =     0.05234868   -0.02689342    0.04860943
     atom   81 type  1   force =    -0.01975047    0.04377256   -0.03065695
     atom   82 type  1   force =    -0.06321194   -0.02421591   -0.01455807
     atom   83 type  1   force =    -0.03224477    0.03067329    0.04393075
     atom   84 type  1   force =     0.05309129    0.02200682    0.01842108
     atom   85 type  1   force =    -0.03064038   -0.03644535   -0.09373985
     atom   86 type  1   force =     0.05396574    0.03846225   -0.05262450
     atom   87 type  1   force =     0.10314085   -0.07939091   -0.01694598
     atom   88 type  1   force =    -0.04801634    0.08669632    0.07232447
     atom   89 type  1   force =    -0.08366528   -0.02990796   -0.03709687
     atom   90 type  1   force =    -0.06367456    0.11825783    0.02430308
     atom   91 type  1   force =    -0.02164701   -0.00841867    0.14792711
     atom   92 type  1   force =     0.11535821    0.06978430   -0.01268991
     atom   93 type  1   force =     0.02933518   -0.00108462   -0.03057651
     atom   94 type  1   force =    -0.00852856   -0.09171239    0.07123594
     atom   95 type  1   force =    -0.08644940   -0.00950245   -0.07625454
     atom   96 type  1   force =     0.03361882   -0.01807499   -0.01053397
     atom   97 type  1   force =     0.22906097   -0.22804935   -0.14816131
     atom   98 type  1   force =     0.01062598   -0.04609787    0.01450972
     atom   99 type  1   force =    -0.06069466    0.03667269    0.02717025
     atom  100 type  1   force =     0.29023764    0.27787266    0.11597074
     atom  101 type  1   force =     0.12667303   -0.02145755   -0.09342438
     atom  102 type  1   force =    -0.08410892   -0.05073922   -0.01313776
     atom  103 type  1   force =     0.01670222   -0.00613253    0.02245740
     atom  104 type  1   force =     0.03252727   -0.08099304   -0.09069807
     atom  105 type  1   force =     0.05749004   -0.03191986    0.04806761
     atom  106 type  1   force =     0.06041714   -0.04853996   -0.05433067
     atom  107 type  1   force =    -0.02546496    0.03866626   -0.10601354
     atom  108 type  1   force =     0.08434410    0.02505125    0.10757119
     atom  109 type  1   force =     0.06779352   -0.03983082    0.07369622
     atom  110 type  1   force =    -0.14071719    0.10694421    0.07113258
     atom  111 type  1   force =    -0.11870415   -0.01269451    0.13877221
     atom  112 type  1   force =     0.01870735   -0.05831339   -0.07640473
     atom  113 type  1   force =    -0.04622283    0.08975584    0.07576643
     atom  114 type  1   force =    -0.06405079    0.02365213   -0.10153688
     atom  115 type  1   force =     0.08149557   -0.01898237   -0.10482612
     atom  116 type  1   force =    -0.06326404    0.02016686    0.00698357
     atom  117 type  1   force =    -0.11922350   -0.02325713    0.09237959
     atom  118 type  1   force =    -0.07976498   -0.03710870   -0.05771799
     atom  119 type  1   force =    -0.03728131   -0.00756150   -0.01518112
     atom  120 type  1   force =     0.10335315   -0.07369726   -0.12117372
     atom  121 type  1   force =    -0.00423066    0.11807610    0.08260392
     atom  122 type  1   force =    -0.08078782   -0.00433851   -0.06241273
     atom  123 type  1   force =     0.03696516    0.05243908   -0.01448282
     atom  124 type  1   force =     0.07671008    0.06110942   -0.00190011
     atom  125 type  1   force =     0.06101989    0.01266057    0.05610296
     atom  126 type  1   force =    -0.02410817   -0.08710765   -0.12262058
     atom  127 type  1   force =    -0.00334120   -0.04434489    0.00696870
     atom  128 type  1   force =    -0.03926641   -0.01520702    0.00677206
     atom  129 type  1   force =     0.02710781   -0.08849635    0.02248910
     atom  130 type  1   force =     0.10220279   -0.01610772    0.05730280
     atom  131 type  1   force =    -0.10519469    0.11109068    0.10387176
     atom  132 type  1   force =     0.01984569    0.01039664   -0.02839792
     atom  133 type  1   force =     0.06619551    0.03561464    0.01286178
     atom  134 type  1   force =    -0.07492180   -0.05682499   -0.00841104
     atom  135 type  1   force =     0.13261403   -0.05939106   -0.10031195
     atom  136 type  1   force =    -0.09752926    0.08848332   -0.05854623
     atom  137 type  1   force =    -0.08984732   -0.00183894   -0.02256865
     atom  138 type  1   force =     0.02649558   -0.08141116    0.11942876
     atom  139 type  1   force =     0.06561724    0.02160563    0.03418258
     atom  140 type  1   force =     0.09840352    0.04184666    0.08253011
     atom  141 type  1   force =     0.01439371    0.02493431   -0.02596720
     atom  142 type  1   force =     0.02757789   -0.10628130    0.06967202
     atom  143 type  1   force =    -0.00331658    0.00968688    0.02982238
     atom  144 type  1   force =    -0.01783369   -0.15376731   -0.32516961
     atom  145 type  1   force =     0.09356482    0.21934263    0.21900141
     atom  146 type  1   force =     0.06967581   -0.08302504   -0.00884396
     atom  147 type  1   force =     0.01710496   -0.00311401    0.01065814
     atom  148 type  1   force =    -0.02784605    0.05916831   -0.09208540
     atom  149 type  1   force =     0.00854696   -0.10729709    0.10989968
     atom  150 type  1   force =     0.03221705   -0.03797611    0.06960331
     atom  151 type  1   force =     0.00200498    0.09384615   -0.08849577
     atom  152 type  1   force =     0.06075753   -0.01182179   -0.08657845
     atom  153 type  1   force =     0.11259838   -0.00478722   -0.09051219
     atom  154 type  1   force =    -0.01864857    0.02685611   -0.03291328
     atom  155 type  1   force =     0.03573775    0.07428808   -0.05288951
     atom  156 type  1   force =     0.04043813   -0.01191147    0.05788862
     atom  157 type  1   force =    -0.08392963    0.04669777   -0.00030029
     atom  158 type  1   force =     0.02100303   -0.00309067   -0.03616829
     atom  159 type  1   force =     0.05529323    0.01268318    0.03301803
     atom  160 type  1   force =    -0.03646662    0.04584947   -0.02409942
     atom  161 type  1   force =    -0.02573655    0.07942342   -0.02056284
     atom  162 type  1   force =    -0.11683236    0.00818712   -0.03130164
     atom  163 type  1   force =    -0.03037985    0.01195681    0.01817717
     atom  164 type  1   force =     0.02254279   -0.02938573    0.04087176
     atom  165 type  1   force =    -0.03422242   -0.08199121   -0.04370861
     atom  166 type  1   force =    -0.01193222    0.07082511    0.02509800
     atom  167 type  1   force =     0.05578564   -0.13381013   -0.06817711
     atom  168 type  1   force =    -0.10439391    0.10417850   -0.02661863
     atom  169 type  1   force =    -0.02998522    0.02526930    0.04936676
     atom  170 type  1   force =     0.05597536    0.08679113    0.14272597
     atom  171 type  1   force =    -0.05961187   -0.07614432   -0.02171600
     atom  172 type  1   force =     0.06329473    0.01781448   -0.07515123
     atom  173 type  1   force =     0.19018748   -0.08206989   -0.08417468
     atom  174 type  1   force =     0.04891863    0.04047540   -0.01645067
     atom  175 type  1   force =     0.03915506   -0.00001340   -0.02750706
     atom  176 type  1   force =    -0.03118616    0.03789392    0.00506418
     atom  177 type  1   force =     0.03905464   -0.03750253   -0.05478162
     atom  178 type  1   force =    -0.04647475   -0.12441313   -0.15976502
     atom  179 type  1   force =    -0.08661973    0.09598996    0.04185179
     atom  180 type  1   force =     0.06634884    0.02445190    0.08697045
     atom  181 type  1   force =     0.07248549    0.05068292   -0.00697243
     atom  182 type  1   force =    -0.12422368    0.10344753   -0.11137610
     atom  183 type  1   force =    -0.03412739   -0.07928135    0.09055715
     atom  184 type  1   force =     0.04052478   -0.04107480    0.05713224
     atom  185 type  1   force =     0.04983092   -0.01209069    0.04123822
     atom  186 type  1   force =    -0.05122780    0.04593843   -0.10507073
     atom  187 type  1   force =     0.02142919   -0.08091298    0.00315632
     atom  188 type  1   force =     0.07037824   -0.04450159    0.08770925
     atom  189 type  1   force =    -0.03636717   -0.03867243    0.02121533
     atom  190 type  1   force =     0.01659737   -0.00478730    0.03468718
     atom  191 type  1   force =    -0.13532698   -0.04826881    0.09078074
     atom  192 type  1   force =     0.02125046    0.02934189    0.04782515
     atom  193 type  1   force =    -0.00850673   -0.03711581   -0.21675349
     atom  194 type  1   force =    -0.11488972   -0.04788246   -0.01557941
     atom  195 type  1   force =     0.08726636    0.02775298    0.04685939
     atom  196 type  1   force =     0.01126511    0.14118383    0.08231222
     atom  197 type  1   force =    -0.12463242   -0.10064415   -0.01334058
     atom  198 type  1   force =     0.11827767    0.14602999   -0.03027291
     atom  199 type  1   force =    -0.00865029   -0.07217188    0.02703542
     atom  200 type  1   force =     0.04036249    0.07882350   -0.05344953
     atom  201 type  1   force =     0.02185757   -0.07639782    0.08755564
     atom  202 type  1   force =    -0.15717104    0.07982320    0.10039758
     atom  203 type  1   force =     0.02535366    0.02375721   -0.11083604
     atom  204 type  1   force =     0.02462816    0.01468226   -0.06373166
     atom  205 type  1   force =    -0.04849657   -0.08526114   -0.00283975
     atom  206 type  1   force =     0.08283513    0.00698001   -0.06500208
     atom  207 type  1   force =    -0.10375989   -0.05569883    0.01613983
     atom  208 type  1   force =    -0.08664806    0.04368819    0.14546249
     atom  209 type  1   force =    -0.06627147   -0.14597661    0.10069259
     atom  210 type  1   force =     0.07413698    0.10550337    0.07516979
     atom  211 type  1   force =    -0.02268702   -0.06660499   -0.07371146
     atom  212 type  1   force =     0.00625449   -0.12630453   -0.12214754
     atom  213 type  1   force =     0.06425785    0.07180791   -0.00629683
     atom  214 type  1   force =    -0.00316359    0.10092189    0.06517209
     atom  215 type  1   force =    -0.11258929   -0.13465501    0.02396078
     atom  216 type  1   force =    -0.07773359   -0.02320341    0.00218304
     atom  217 type  1   force =    -0.02468167   -0.04163150   -0.07193360
     atom  218 type  1   force =    -0.20866699   -0.09029547   -0.03698794
     atom  219 type  1   force =     0.03305646   -0.03694436    0.04075224
     atom  220 type  1   force =     0.00231929    0.03332527    0.04582578
     atom  221 type  1   force =    -0.03528306    0.02387904   -0.01754944
     atom  222 type  1   force =    -0.07369476   -0.20898531    0.05531175
     atom  223 type  1   force =     0.04023588   -0.04473708   -0.04787346
     atom  224 type  1   force =    -0.00849536    0.10640018   -0.09378816
     atom  225 type  1   force =     0.05349880   -0.16346516   -0.13509168
     atom  226 type  1   force =    -0.01723189    0.05571964    0.04817409
     atom  227 type  1   force =     0.00831927   -0.05586406   -0.03896590
     atom  228 type  1   force =     0.09840706    0.05044407    0.19445408
     atom  229 type  1   force =     0.04778515    0.08905498    0.12759355
     atom  230 type  1   force =     0.01476921    0.03448090    0.03200543
     atom  231 type  1   force =    -0.03764961    0.11902975   -0.01819437
     atom  232 type  1   force =     0.02979350    0.02574637    0.00390436
     atom  233 type  1   force =    -0.01893851   -0.07217053   -0.07203628
     atom  234 type  1   force =    -0.02640925    0.00385890    0.03648011
     atom  235 type  1   force =    -0.10723151   -0.06225321   -0.29900966
     atom  236 type  1   force =     0.02112384    0.13319711    0.01505701
     atom  237 type  1   force =    -0.23050665   -0.10545952   -0.02156342
     atom  238 type  1   force =     0.06877155    0.28662143    0.09167451
     atom  239 type  1   force =     0.04640201   -0.06324656    0.08756429
     atom  240 type  1   force =     0.05812490   -0.01874493   -0.07380398
     atom  241 type  1   force =     0.04617390    0.07933921   -0.04707152
     atom  242 type  1   force =    -0.17761176    0.04481812    0.19646625
     atom  243 type  1   force =    -0.04853628   -0.20430698   -0.17955467
     atom  244 type  1   force =     0.07454241   -0.11364866    0.06428994
     atom  245 type  1   force =     0.08562816   -0.09238276   -0.03349983
     atom  246 type  1   force =    -0.03484281    0.23505351    0.21759970
     atom  247 type  1   force =    -0.24835352    0.17446185   -0.12299649
     atom  248 type  1   force =     0.10452066    0.03967051    0.11379474
     atom  249 type  1   force =    -0.04989164   -0.07576530   -0.00418384
     atom  250 type  1   force =     0.00767414    0.09067667   -0.00287041
     atom  251 type  1   force =    -0.04181838   -0.05801828   -0.00452768
     atom  252 type  1   force =     0.07983918    0.00779530    0.02809963
     atom  253 type  1   force =     0.08446929   -0.15814803   -0.21539920
     atom  254 type  1   force =    -0.06550425   -0.07002343    0.05374674
     atom  255 type  1   force =     0.01479447   -0.06469692   -0.05104304
     atom  256 type  1   force =     0.05519145    0.19519420    0.10538422

     Total force =     2.336633     Total SCF correction =     0.000406


     entering subroutine stress ...

          total   stress  (Ry/bohr**3)                   (kbar)     P=  126.18
   0.00086690   0.00003717  -0.00001963        127.52      5.47     -2.89
   0.00003717   0.00086480   0.00006408          5.47    127.22      9.43
  -0.00001963   0.00006408   0.00084158         -2.89      9.43    123.80


     Writing output data file 7db424d6796b.save
 
     init_run     :     89.85s CPU     95.02s WALL (       1 calls)
     electrons    :   2074.74s CPU   2149.36s WALL (       1 calls)
     forces       :     44.41s CPU     44.66s WALL (       1 calls)
     stress       :    211.73s CPU    212.32s WALL (       1 calls)

     Called by init_run:
     wfcinit      :     82.97s CPU     87.43s WALL (       1 calls)
     potinit      :      0.77s CPU      0.95s WALL (       1 calls)

     Called by electrons:
     c_bands      :   1842.11s CPU   1901.50s WALL (      11 calls)
     sum_band     :    168.71s CPU    179.92s WALL (      11 calls)
     v_of_rho     :      2.11s CPU      3.24s WALL (      12 calls)
     newd         :     53.29s CPU     53.80s WALL (      12 calls)
     mix_rho      :      3.72s CPU      4.93s WALL (      11 calls)

     Called by c_bands:
     init_us_2    :      4.25s CPU      4.31s WALL (     100 calls)
     cegterg      :   1826.56s CPU   1885.70s WALL (      44 calls)

     Called by *egterg:
     h_psi        :    637.74s CPU    693.54s WALL (     287 calls)
     s_psi        :    161.73s CPU    162.50s WALL (     287 calls)
     g_psi        :      2.08s CPU      2.09s WALL (     239 calls)
     cdiaghg      :    714.11s CPU    715.32s WALL (     283 calls)

     Called by h_psi:
     add_vuspsi   :    159.88s CPU    160.68s WALL (     287 calls)

     General routines
     calbec       :    308.64s CPU    309.16s WALL (     339 calls)
     fft          :     15.90s CPU     18.45s WALL (     213 calls)
     ffts         :      1.34s CPU      2.44s WALL (     153 calls)
     fftw         :    278.00s CPU    342.85s WALL (  136900 calls)
     interpolate  :      0.55s CPU      0.99s WALL (      23 calls)
     davcio       :      0.00s CPU      4.53s WALL (       4 calls)
 
     Parallel routines
     fft_scatter  :    197.77s CPU    239.99s WALL (  137266 calls)
 
     PAW routines
     PAW_pot      :      5.98s CPU      6.21s WALL (      12 calls)
     PAW_ddot     :      2.01s CPU      2.07s WALL (     211 calls)
 
     PWSCF        : 40m22.07s CPU    41m48.33s WALL

 
   This run was terminated on:   5:51:51  19Oct2013            

=------------------------------------------------------------------------------=
   JOB DONE.
=------------------------------------------------------------------------------=
