
     Program PWSCF v.5.0.2 (svn rev. 9392) starts on 22Oct2013 at 10:45:33 

     This program is part of the open-source Quantum ESPRESSO suite
     for quantum simulation of materials; please cite
         "P. Giannozzi et al., J. Phys.:Condens. Matter 21 395502 (2009);
          URL http://www.quantum-espresso.org", 
     in publications or presentations arising from this work. More details at
     http://www.quantum-espresso.org/quote.php

     Parallel version (MPI & OpenMP), running on     256 processor cores
     Number of MPI processes:               128
     Threads/MPI process:                     2
     R & G space division:  proc/nbgrp/npool/nimage =     128

     Current dimensions of program PWSCF are:
     Max number of different atomic species (ntypx) = 10
     Max number of k-points (npk) =  40000
     Max angular momentum in pseudopotentials (lmaxx) =  3
     Waiting for input...
     Reading input from standard input
Warning: card &IONS ignored
Warning: card ION_DYNAMICS='BFGS', ignored
Warning: card / ignored
Warning: card &CELL ignored
Warning: card CELL_DYNAMICS='BFGS', ignored
Warning: card PRESS=0.0, ignored
Warning: card CELL_FACTOR=2.0, ignored
Warning: card / ignored
               file Al.pbe-n-kjpaw_psl.0.1.UPF: wavefunction(s)  3S renormalized

     Subspace diagonalization in iterative solution of the eigenvalue problem:
     scalapack distributed-memory algorithm (size of sub-group:  8*  8 procs)


     Parallelization info
     --------------------
     sticks:   dense  smooth     PW     G-vecs:    dense   smooth      PW
     Min         120      81     21                11244     6193     807
     Max         122      82     22                11247     6230     817
     Sum       15421   10389   2693              1439361   794839  103959



     bravais-lattice index     =           14
     lattice parameter (alat)  =      30.5130  a.u.
     unit-cell volume          =   28409.0236 (a.u.)^3
     number of atoms/cell      =          256
     number of atomic types    =            1
     number of electrons       =       768.00
     number of Kohn-Sham states=          461
     kinetic-energy cutoff     =      35.0000  Ry
     charge density cutoff     =     208.0000  Ry
     convergence threshold     =      1.0E-07
     mixing beta               =       0.7000
     number of iterations used =            8  local-TF  mixing
     Exchange-correlation      =  SLA  PW   PBX  PBC ( 1 4 3 4 0)
     EXX-fraction              =        0.00

     celldm(1)=  30.513037  celldm(2)=   1.000000  celldm(3)=   1.000000
     celldm(4)=   0.000000  celldm(5)=   0.000000  celldm(6)=   0.000000

     crystal axes: (cart. coord. in units of alat)
               a(1) = (   1.000000   0.000000   0.000000 )  
               a(2) = (   0.000000   1.000000   0.000000 )  
               a(3) = (   0.000000   0.000000   1.000000 )  

     reciprocal axes: (cart. coord. in units 2 pi/alat)
               b(1) = (  1.000000  0.000000  0.000000 )  
               b(2) = (  0.000000  1.000000  0.000000 )  
               b(3) = (  0.000000  0.000000  1.000000 )  


     PseudoPot. # 1 for Al read from file:
     /work/e298/e298/benp/pp/Al.pbe-n-kjpaw_psl.0.1.UPF
     MD5 check sum: c290c600b2b3f4e95cb15d62bc64d19d
     Pseudo is Projector augmented-wave + core cor, Zval =  3.0
     Generated using "atomic" code by A. Dal Corso  v.5.0.2 svn rev. 9392
     Shape of augmentation charge: PSQ
     Using radial grid of 1135 points,  4 beta functions with: 
                l(1) =   0
                l(2) =   0
                l(3) =   1
                l(4) =   1
     Q(r) pseudized with 0 coefficients 


     atomic species   valence    mass     pseudopotential
        N              3.00    26.98154     Al( 1.00)

     No symmetry found



   Cartesian axes

     site n.     atom                  positions (alat units)
         1           N   tau(   1) = (   0.9840750   0.9667760   0.0170280  )
         2           N   tau(   2) = (   0.1114820   0.1180330   0.0207140  )
         3           N   tau(   3) = (   0.0988200   0.0349320   0.1199380  )
         4           N   tau(   4) = (   0.9836230   0.1104000   0.1369860  )
         5           N   tau(   5) = (   0.2787130   0.0138680   0.9804810  )
         6           N   tau(   6) = (   0.2653380   0.1292000   0.1372430  )
         7           N   tau(   7) = (   0.3320830   0.1102170   0.0213070  )
         8           N   tau(   8) = (   0.3493370   0.0114580   0.1156650  )
         9           N   tau(   9) = (   0.0125130   0.9945170   0.2201530  )
        10           N   tau(  10) = (   0.1557570   0.0987920   0.2678090  )
        11           N   tau(  11) = (   0.1431230   0.9859320   0.3640460  )
        12           N   tau(  12) = (   0.9942890   0.1365400   0.3877430  )
        13           N   tau(  13) = (   0.9835010   0.0128940   0.4741440  )
        14           N   tau(  14) = (   0.1276360   0.1322420   0.5245740  )
        15           N   tau(  15) = (   0.1093960   0.9775510   0.6538200  )
        16           N   tau(  16) = (   0.0190720   0.1316060   0.5915640  )
        17           N   tau(  17) = (   0.0189390   0.9812060   0.7338190  )
        18           N   tau(  18) = (   0.1018180   0.0914310   0.7703600  )
        19           N   tau(  19) = (   0.1075700   0.9746810   0.8518130  )
        20           N   tau(  20) = (   0.0195640   0.1323990   0.8880650  )
        21           N   tau(  21) = (   0.9841950   0.2369080   0.9738870  )
        22           N   tau(  22) = (   0.1539590   0.3855720   0.0080830  )
        23           N   tau(  23) = (   0.1140080   0.2308830   0.1536280  )
        24           N   tau(  24) = (   0.0289970   0.4009200   0.0904070  )
        25           N   tau(  25) = (   0.0069970   0.2300350   0.2749530  )
        26           N   tau(  26) = (   0.1157170   0.4008440   0.2730770  )
        27           N   tau(  27) = (   0.1009160   0.2189150   0.3406480  )
        28           N   tau(  28) = (   0.0204570   0.4042460   0.3880880  )
        29           N   tau(  29) = (   0.9868380   0.2528410   0.5256130  )
        30           N   tau(  30) = (   0.1055830   0.3585830   0.5064380  )
        31           N   tau(  31) = (   0.1301970   0.2645510   0.5999040  )
        32           N   tau(  32) = (   0.0147950   0.3955210   0.6407090  )
        33           N   tau(  33) = (   0.9876700   0.2732100   0.7597110  )
        34           N   tau(  34) = (   0.1530480   0.3656440   0.7295990  )
        35           N   tau(  35) = (   0.0984390   0.2775300   0.8883190  )
        36           N   tau(  36) = (   0.9837960   0.3839980   0.8645460  )
        37           N   tau(  37) = (   0.9687130   0.4849450   0.0302510  )
        38           N   tau(  38) = (   0.1213470   0.6539810   0.9875080  )
        39           N   tau(  39) = (   0.1496810   0.5187710   0.0865360  )
        40           N   tau(  40) = (   0.0298820   0.6118970   0.0748870  )
        41           N   tau(  41) = (   0.9802600   0.5035090   0.2384740  )
        42           N   tau(  42) = (   0.1470930   0.6538840   0.2713310  )
        43           N   tau(  43) = (   0.0943820   0.4697930   0.3600220  )
        44           N   tau(  44) = (   0.0251640   0.6371680   0.3799390  )
        45           N   tau(  45) = (   0.0162660   0.4485860   0.4799090  )
        46           N   tau(  46) = (   0.1097220   0.6409470   0.5333500  )
        47           N   tau(  47) = (   0.1025330   0.4717910   0.6036980  )
        48           N   tau(  48) = (   0.0108500   0.6170520   0.6358840  )
        49           N   tau(  49) = (   0.9883610   0.4780310   0.7377190  )
        50           N   tau(  50) = (   0.0987630   0.6039660   0.7325670  )
        51           N   tau(  51) = (   0.1508700   0.4850950   0.8883600  )
        52           N   tau(  52) = (   0.0317140   0.6560550   0.8568430  )
        53           N   tau(  53) = (   0.9903210   0.7463890   0.0291220  )
        54           N   tau(  54) = (   0.1538400   0.8862900   0.9783110  )
        55           N   tau(  55) = (   0.1146740   0.7616590   0.1146340  )
        56           N   tau(  56) = (   0.9949570   0.8533390   0.1347980  )
        57           N   tau(  57) = (   0.9750310   0.7911020   0.2227700  )
        58           N   tau(  58) = (   0.1335650   0.8637410   0.2630330  )
        59           N   tau(  59) = (   0.1411280   0.7600680   0.3530490  )
        60           N   tau(  60) = (   0.9895060   0.8627910   0.3984400  )
        61           N   tau(  61) = (   0.0108330   0.7328260   0.4898510  )
        62           N   tau(  62) = (   0.0956820   0.8497320   0.4800540  )
        63           N   tau(  63) = (   0.1117150   0.7307530   0.5915870  )
        64           N   tau(  64) = (   0.9778590   0.8788440   0.6206590  )
        65           N   tau(  65) = (   0.9762200   0.7691620   0.7255230  )
        66           N   tau(  66) = (   0.1424510   0.8717760   0.7211590  )
        67           N   tau(  67) = (   0.1465990   0.7404960   0.8932500  )
        68           N   tau(  68) = (   0.9604810   0.8571830   0.8594080  )
        69           N   tau(  69) = (   0.2652920   0.0260170   0.2862670  )
        70           N   tau(  70) = (   0.3671770   0.1189990   0.2279970  )
        71           N   tau(  71) = (   0.3385540   0.0260350   0.3673080  )
        72           N   tau(  72) = (   0.2400340   0.1119460   0.3842150  )
        73           N   tau(  73) = (   0.2414900   0.0228200   0.4776410  )
        74           N   tau(  74) = (   0.3810140   0.1345650   0.4819900  )
        75           N   tau(  75) = (   0.3974530   0.9734250   0.6116830  )
        76           N   tau(  76) = (   0.2693150   0.1453480   0.6362210  )
        77           N   tau(  77) = (   0.2115490   0.0174910   0.7778690  )
        78           N   tau(  78) = (   0.3675500   0.0978290   0.7289780  )
        79           N   tau(  79) = (   0.4075240   0.9809670   0.8941590  )
        80           N   tau(  80) = (   0.2605430   0.1485150   0.9175790  )
        81           N   tau(  81) = (   0.2666890   0.2371660   0.0313560  )
        82           N   tau(  82) = (   0.3485920   0.3279720   0.0078480  )
        83           N   tau(  83) = (   0.3387280   0.2763140   0.1204170  )
        84           N   tau(  84) = (   0.2608260   0.3676390   0.1207710  )
        85           N   tau(  85) = (   0.2208430   0.2823740   0.2381380  )
        86           N   tau(  86) = (   0.3549920   0.3590820   0.2233770  )
        87           N   tau(  87) = (   0.3913090   0.2408990   0.4048370  )
        88           N   tau(  88) = (   0.2614720   0.3563080   0.3942310  )
        89           N   tau(  89) = (   0.2336060   0.2314140   0.4804610  )
        90           N   tau(  90) = (   0.3640410   0.4033650   0.5411700  )
        91           N   tau(  91) = (   0.3781400   0.2217040   0.6416960  )
        92           N   tau(  92) = (   0.2242730   0.3648410   0.6111540  )
        93           N   tau(  93) = (   0.2609640   0.2194310   0.7285760  )
        94           N   tau(  94) = (   0.3891710   0.3857010   0.7281990  )
        95           N   tau(  95) = (   0.3580800   0.2395000   0.8782590  )
        96           N   tau(  96) = (   0.2652760   0.4003500   0.8925900  )
        97           N   tau(  97) = (   0.2797520   0.5079160   0.0101850  )
        98           N   tau(  98) = (   0.3829730   0.6310200   0.0104280  )
        99           N   tau(  99) = (   0.3588120   0.4728410   0.1080850  )
       100           N   tau( 100) = (   0.2667180   0.6112130   0.1137640  )
       101           N   tau( 101) = (   0.2805380   0.4845200   0.2187940  )
       102           N   tau( 102) = (   0.3454530   0.6156210   0.2226480  )
       103           N   tau( 103) = (   0.3917310   0.4720520   0.3384670  )
       104           N   tau( 104) = (   0.2615710   0.6456700   0.3800900  )
       105           N   tau( 105) = (   0.2682070   0.4966410   0.4900210  )
       106           N   tau( 106) = (   0.3859440   0.6586010   0.4764980  )
       107           N   tau( 107) = (   0.3558680   0.4810690   0.6060560  )
       108           N   tau( 108) = (   0.2575060   0.6377070   0.6059570  )
       109           N   tau( 109) = (   0.2919030   0.4785630   0.7194780  )
       110           N   tau( 110) = (   0.3524680   0.6354200   0.7383350  )
       111           N   tau( 111) = (   0.4148250   0.5172940   0.8667240  )
       112           N   tau( 112) = (   0.2730510   0.5998130   0.8909560  )
       113           N   tau( 113) = (   0.2703440   0.7368740   0.9825650  )
       114           N   tau( 114) = (   0.3663600   0.8977070   0.9945550  )
       115           N   tau( 115) = (   0.3576300   0.7131630   0.1088150  )
       116           N   tau( 116) = (   0.2574430   0.8984880   0.1123050  )
       117           N   tau( 117) = (   0.2233410   0.7311620   0.2389950  )
       118           N   tau( 118) = (   0.3455190   0.8566370   0.2746280  )
       119           N   tau( 119) = (   0.3795280   0.7326100   0.3521750  )
       120           N   tau( 120) = (   0.2377790   0.8874970   0.4057220  )
       121           N   tau( 121) = (   0.2337140   0.7415610   0.5201530  )
       122           N   tau( 122) = (   0.4340090   0.8911870   0.4646230  )
       123           N   tau( 123) = (   0.3567570   0.7319630   0.6640480  )
       124           N   tau( 124) = (   0.2556470   0.8834890   0.6004720  )
       125           N   tau( 125) = (   0.2427290   0.7519100   0.7614630  )
       126           N   tau( 126) = (   0.3668040   0.8442100   0.7792400  )
       127           N   tau( 127) = (   0.3993580   0.7201930   0.8900400  )
       128           N   tau( 128) = (   0.2207220   0.8549070   0.9143130  )
       129           N   tau( 129) = (   0.4791120   0.0194690   0.9798620  )
       130           N   tau( 130) = (   0.6453740   0.1116650   0.9927970  )
       131           N   tau( 131) = (   0.6074450   0.0121130   0.1435000  )
       132           N   tau( 132) = (   0.5290660   0.1666100   0.1088750  )
       133           N   tau( 133) = (   0.5178490   0.0124530   0.2719110  )
       134           N   tau( 134) = (   0.6469780   0.1375540   0.2545710  )
       135           N   tau( 135) = (   0.6064610   0.9798550   0.3634030  )
       136           N   tau( 136) = (   0.4838420   0.0882080   0.3671360  )
       137           N   tau( 137) = (   0.5290710   0.9750850   0.4772450  )
       138           N   tau( 138) = (   0.6350080   0.1420840   0.5124290  )
       139           N   tau( 139) = (   0.6499890   0.9845960   0.6343380  )
       140           N   tau( 140) = (   0.5350890   0.1180070   0.6054920  )
       141           N   tau( 141) = (   0.5109100   0.0074330   0.7742520  )
       142           N   tau( 142) = (   0.6472220   0.1144440   0.7652180  )
       143           N   tau( 143) = (   0.6046470   0.9933390   0.8816230  )
       144           N   tau( 144) = (   0.5103560   0.1114960   0.8435490  )
       145           N   tau( 145) = (   0.4939960   0.2394370   0.0140110  )
       146           N   tau( 146) = (   0.6062730   0.3480330   0.9743230  )
       147           N   tau( 147) = (   0.5927550   0.2571430   0.1542030  )
       148           N   tau( 148) = (   0.4967560   0.3822860   0.1434400  )
       149           N   tau( 149) = (   0.5176980   0.2453290   0.2357240  )
       150           N   tau( 150) = (   0.6112260   0.4003600   0.2291010  )
       151           N   tau( 151) = (   0.6390220   0.2732750   0.4027480  )
       152           N   tau( 152) = (   0.5228300   0.3425210   0.3462700  )
       153           N   tau( 153) = (   0.4872650   0.2398350   0.5420620  )
       154           N   tau( 154) = (   0.6041900   0.3920990   0.4869140  )
       155           N   tau( 155) = (   0.6046480   0.2377600   0.6356860  )
       156           N   tau( 156) = (   0.4829420   0.3694210   0.6493890  )
       157           N   tau( 157) = (   0.4784110   0.2704800   0.7396330  )
       158           N   tau( 158) = (   0.6377420   0.3620800   0.7155050  )
       159           N   tau( 159) = (   0.6362050   0.2242010   0.8646370  )
       160           N   tau( 160) = (   0.5193080   0.3500540   0.8656620  )
       161           N   tau( 161) = (   0.4749930   0.4810080   0.9718320  )
       162           N   tau( 162) = (   0.6483990   0.6484060   0.0032120  )
       163           N   tau( 163) = (   0.5997850   0.5159420   0.1534070  )
       164           N   tau( 164) = (   0.5140920   0.6577230   0.1518420  )
       165           N   tau( 165) = (   0.5105080   0.5349440   0.2397530  )
       166           N   tau( 166) = (   0.6605850   0.5995760   0.2759700  )
       167           N   tau( 167) = (   0.5990490   0.5054690   0.4015170  )
       168           N   tau( 168) = (   0.5150770   0.6095290   0.3543180  )
       169           N   tau( 169) = (   0.5096960   0.4867480   0.5068560  )
       170           N   tau( 170) = (   0.6354560   0.6422320   0.5122490  )
       171           N   tau( 171) = (   0.6133800   0.5217380   0.6487650  )
       172           N   tau( 172) = (   0.5206470   0.6576960   0.5850550  )
       173           N   tau( 173) = (   0.4745290   0.5112310   0.7599030  )
       174           N   tau( 174) = (   0.6092930   0.6531510   0.7328380  )
       175           N   tau( 175) = (   0.5948910   0.4887780   0.9039830  )
       176           N   tau( 176) = (   0.4956670   0.6500190   0.8672130  )
       177           N   tau( 177) = (   0.5075040   0.7123460   0.0155280  )
       178           N   tau( 178) = (   0.6009940   0.8875690   0.9859720  )
       179           N   tau( 179) = (   0.6529810   0.7193380   0.1067890  )
       180           N   tau( 180) = (   0.5197560   0.8799270   0.1004580  )
       181           N   tau( 181) = (   0.4860350   0.7489430   0.2668920  )
       182           N   tau( 182) = (   0.6444610   0.8448790   0.2293620  )
       183           N   tau( 183) = (   0.6415150   0.7666500   0.3623160  )
       184           N   tau( 184) = (   0.4888230   0.8950430   0.4010110  )
       185           N   tau( 185) = (   0.5170330   0.7676600   0.4905020  )
       186           N   tau( 186) = (   0.6407950   0.8722750   0.5213320  )
       187           N   tau( 187) = (   0.6441310   0.7558470   0.6493220  )
       188           N   tau( 188) = (   0.4765580   0.8779430   0.6602190  )
       189           N   tau( 189) = (   0.5417440   0.7662700   0.7373930  )
       190           N   tau( 190) = (   0.6476920   0.8552440   0.7626800  )
       191           N   tau( 191) = (   0.6093620   0.7374600   0.8836780  )
       192           N   tau( 192) = (   0.4661560   0.8668780   0.8669480  )
       193           N   tau( 193) = (   0.7273640   0.9950170   0.9986080  )
       194           N   tau( 194) = (   0.8721030   0.1158710   0.0190390  )
       195           N   tau( 195) = (   0.8978160   0.0110960   0.1405620  )
       196           N   tau( 196) = (   0.7464870   0.1132070   0.1369270  )
       197           N   tau( 197) = (   0.7614610   0.0079380   0.2596610  )
       198           N   tau( 198) = (   0.8865700   0.1179670   0.2693780  )
       199           N   tau( 199) = (   0.8876980   0.9934140   0.3796810  )
       200           N   tau( 200) = (   0.7147480   0.0941310   0.4290380  )
       201           N   tau( 201) = (   0.7738000   0.0079580   0.4861390  )
       202           N   tau( 202) = (   0.8902050   0.1048350   0.4543860  )
       203           N   tau( 203) = (   0.8482030   0.0217140   0.6058210  )
       204           N   tau( 204) = (   0.7520990   0.0981080   0.6384180  )
       205           N   tau( 205) = (   0.7251440   0.0197600   0.7337790  )
       206           N   tau( 206) = (   0.8411040   0.1454190   0.7582560  )
       207           N   tau( 207) = (   0.8584540   0.9809840   0.8809130  )
       208           N   tau( 208) = (   0.7216280   0.0985020   0.9008440  )
       209           N   tau( 209) = (   0.7731890   0.2397580   0.0311790  )
       210           N   tau( 210) = (   0.8612300   0.3479090   0.9884210  )
       211           N   tau( 211) = (   0.8927240   0.2653030   0.1359320  )
       212           N   tau( 212) = (   0.7448080   0.3685400   0.1003920  )
       213           N   tau( 213) = (   0.7586400   0.2459780   0.2449730  )
       214           N   tau( 214) = (   0.8625560   0.3549220   0.2613430  )
       215           N   tau( 215) = (   0.8791060   0.2428370   0.3569180  )
       216           N   tau( 216) = (   0.7564390   0.3938300   0.3827660  )
       217           N   tau( 217) = (   0.7457150   0.2668390   0.5266630  )
       218           N   tau( 218) = (   0.8874630   0.3489120   0.5314930  )
       219           N   tau( 219) = (   0.8668950   0.2699250   0.6023600  )
       220           N   tau( 220) = (   0.7398680   0.3591620   0.6441600  )
       221           N   tau( 221) = (   0.7274440   0.2115420   0.7582210  )
       222           N   tau( 222) = (   0.8756120   0.3869430   0.7628710  )
       223           N   tau( 223) = (   0.8975020   0.2476230   0.9093240  )
       224           N   tau( 224) = (   0.7376030   0.3812410   0.8484810  )
       225           N   tau( 225) = (   0.7263900   0.4828590   0.0128260  )
       226           N   tau( 226) = (   0.8811770   0.6022660   0.0101800  )
       227           N   tau( 227) = (   0.8670190   0.5008990   0.1474840  )
       228           N   tau( 228) = (   0.7668830   0.6578920   0.1521360  )
       229           N   tau( 229) = (   0.7352390   0.5321620   0.2897330  )
       230           N   tau( 230) = (   0.8641670   0.6022160   0.2223180  )
       231           N   tau( 231) = (   0.8501580   0.4594690   0.4109110  )
       232           N   tau( 232) = (   0.7614180   0.6398220   0.3921200  )
       233           N   tau( 233) = (   0.7693030   0.4845580   0.5158940  )
       234           N   tau( 234) = (   0.8879090   0.6120450   0.5121620  )
       235           N   tau( 235) = (   0.9071300   0.4616970   0.6144600  )
       236           N   tau( 236) = (   0.7303950   0.6023990   0.6099830  )
       237           N   tau( 237) = (   0.7257920   0.4768290   0.7821200  )
       238           N   tau( 238) = (   0.8843170   0.6326920   0.7149420  )
       239           N   tau( 239) = (   0.8479430   0.5143240   0.8914870  )
       240           N   tau( 240) = (   0.7349360   0.6337370   0.9101920  )
       241           N   tau( 241) = (   0.7581480   0.7363310   0.9947730  )
       242           N   tau( 242) = (   0.8589110   0.8603410   0.0322830  )
       243           N   tau( 243) = (   0.8879100   0.7746480   0.1471400  )
       244           N   tau( 244) = (   0.7063510   0.9087100   0.1448040  )
       245           N   tau( 245) = (   0.8028400   0.7258660   0.2635610  )
       246           N   tau( 246) = (   0.8565990   0.8842360   0.2376260  )
       247           N   tau( 247) = (   0.8953770   0.7470940   0.3452540  )
       248           N   tau( 248) = (   0.7383360   0.9256710   0.3953690  )
       249           N   tau( 249) = (   0.7274400   0.7421770   0.4644770  )
       250           N   tau( 250) = (   0.8351580   0.8521490   0.4934320  )
       251           N   tau( 251) = (   0.8891390   0.7324720   0.6076230  )
       252           N   tau( 252) = (   0.7245470   0.8928920   0.6191340  )
       253           N   tau( 253) = (   0.7733250   0.7686570   0.7364210  )
       254           N   tau( 254) = (   0.8891310   0.8992270   0.7706050  )
       255           N   tau( 255) = (   0.8651370   0.7295410   0.8628960  )
       256           N   tau( 256) = (   0.7175850   0.8618980   0.8840970  )

     number of k points=     4  Marzari-Vanderbilt smearing, width (Ry)=  0.0500
                       cart. coord. in units 2pi/alat
        k(    1) = (   0.2500000   0.2500000   0.2500000), wk =   0.5000000
        k(    2) = (  -0.2500000  -0.2500000   0.2500000), wk =   0.5000000
        k(    3) = (  -0.2500000   0.2500000  -0.2500000), wk =   0.5000000
        k(    4) = (   0.2500000  -0.2500000  -0.2500000), wk =   0.5000000

     Dense  grid:  1439361 G-vectors     FFT dimensions: ( 144, 144, 144)

     Smooth grid:   794839 G-vectors     FFT dimensions: ( 120, 120, 120)

     Largest allocated arrays     est. size (Mb)     dimensions
        Kohn-Sham Wavefunctions         5.49 Mb     (    781,  461)
        NL pseudopotentials            24.41 Mb     (    781, 2048)
        Each V/rho on FFT grid          0.63 Mb     (  41472)
        Each G-vector array             0.09 Mb     (  11245)
        G-vector shells                 0.02 Mb     (   2661)
     Largest temporary arrays     est. size (Mb)     dimensions
        Auxiliary wavefunctions        21.98 Mb     (    781, 1844)
        Each subspace H/S matrix        0.81 Mb     ( 230, 230)
        Each <psi_i|beta_j> matrix     14.41 Mb     (   2048,  461)
        Arrays for rho mixing           5.06 Mb     (  41472,   8)

     Check: negative/imaginary core charge=   -0.000007    0.000000

     Initial potential from superposition of free atoms

     starting charge  767.41368, renormalised to  768.00000
     Starting wfc are 1024 randomized atomic wfcs
     Checking if some PAW data can be deallocated... 

     total cpu time spent up to now is       42.8 secs

     per-process dynamical memory:   176.0 Mb

     Self-consistent Calculation

     iteration #  1     ecut=    35.00 Ry     beta=0.70
     Davidson diagonalization with overlap
     ethr =  1.00E-02,  avg # of iterations =  3.0

     total cpu time spent up to now is      130.8 secs

     total energy              =  -10086.35315354 Ry
     Harris-Foulkes estimate   =  -10091.90085191 Ry
     estimated scf accuracy    <      22.07269177 Ry

     iteration #  2     ecut=    35.00 Ry     beta=0.70
     Davidson diagonalization with overlap
     ethr =  2.87E-03,  avg # of iterations =  1.0

     total cpu time spent up to now is      176.2 secs

     total energy              =  -10085.41236280 Ry
     Harris-Foulkes estimate   =  -10087.50800350 Ry
     estimated scf accuracy    <       4.99849263 Ry

     iteration #  3     ecut=    35.00 Ry     beta=0.70
     Davidson diagonalization with overlap
     ethr =  6.51E-04,  avg # of iterations =  4.3

     total cpu time spent up to now is      263.6 secs

     total energy              =  -10086.89227102 Ry
     Harris-Foulkes estimate   =  -10087.20997967 Ry
     estimated scf accuracy    <       1.27282692 Ry

     iteration #  4     ecut=    35.00 Ry     beta=0.70
     Davidson diagonalization with overlap
     ethr =  1.66E-04,  avg # of iterations =  2.3

     total cpu time spent up to now is      318.0 secs

     total energy              =  -10086.97068929 Ry
     Harris-Foulkes estimate   =  -10087.01593347 Ry
     estimated scf accuracy    <       0.15153596 Ry

     iteration #  5     ecut=    35.00 Ry     beta=0.70
     Davidson diagonalization with overlap
     ethr =  1.97E-05,  avg # of iterations =  8.3

     total cpu time spent up to now is      472.9 secs

     total energy              =  -10087.02855552 Ry
     Harris-Foulkes estimate   =  -10087.03538360 Ry
     estimated scf accuracy    <       0.04143204 Ry

     iteration #  6     ecut=    35.00 Ry     beta=0.70
     Davidson diagonalization with overlap
     ethr =  5.39E-06,  avg # of iterations =  1.3

     total cpu time spent up to now is      517.2 secs

     total energy              =  -10087.02668390 Ry
     Harris-Foulkes estimate   =  -10087.03027909 Ry
     estimated scf accuracy    <       0.00959848 Ry

     iteration #  7     ecut=    35.00 Ry     beta=0.70
     Davidson diagonalization with overlap
     ethr =  1.25E-06,  avg # of iterations =  5.5

     total cpu time spent up to now is      615.0 secs

     total energy              =  -10087.02954337 Ry
     Harris-Foulkes estimate   =  -10087.03074361 Ry
     estimated scf accuracy    <       0.00762400 Ry

     iteration #  8     ecut=    35.00 Ry     beta=0.70
     Davidson diagonalization with overlap
     ethr =  9.93E-07,  avg # of iterations =  1.0

     total cpu time spent up to now is      656.1 secs

     total energy              =  -10087.02943225 Ry
     Harris-Foulkes estimate   =  -10087.02985629 Ry
     estimated scf accuracy    <       0.00158344 Ry

     iteration #  9     ecut=    35.00 Ry     beta=0.70
     Davidson diagonalization with overlap
     ethr =  2.06E-07,  avg # of iterations =  4.0

     total cpu time spent up to now is      731.7 secs

     total energy              =  -10087.02977582 Ry
     Harris-Foulkes estimate   =  -10087.02980774 Ry
     estimated scf accuracy    <       0.00024469 Ry

     iteration # 10     ecut=    35.00 Ry     beta=0.70
     Davidson diagonalization with overlap
     ethr =  3.19E-08,  avg # of iterations =  2.0

     total cpu time spent up to now is      780.2 secs

     total energy              =  -10087.02977997 Ry
     Harris-Foulkes estimate   =  -10087.02979204 Ry
     estimated scf accuracy    <       0.00007436 Ry

     iteration # 11     ecut=    35.00 Ry     beta=0.70
     Davidson diagonalization with overlap
     ethr =  9.68E-09,  avg # of iterations =  3.8

     total cpu time spent up to now is      843.8 secs

     total energy              =  -10087.02978962 Ry
     Harris-Foulkes estimate   =  -10087.02978964 Ry
     estimated scf accuracy    <       0.00000285 Ry

     iteration # 12     ecut=    35.00 Ry     beta=0.70
     Davidson diagonalization with overlap
     ethr =  3.71E-10,  avg # of iterations =  5.0

     total cpu time spent up to now is      959.6 secs

     total energy              =  -10087.02979181 Ry
     Harris-Foulkes estimate   =  -10087.02979195 Ry
     estimated scf accuracy    <       0.00000108 Ry

     iteration # 13     ecut=    35.00 Ry     beta=0.70
     Davidson diagonalization with overlap
     ethr =  1.40E-10,  avg # of iterations =  2.0

     total cpu time spent up to now is     1004.4 secs

     total energy              =  -10087.02979182 Ry
     Harris-Foulkes estimate   =  -10087.02979185 Ry
     estimated scf accuracy    <       0.00000041 Ry

     iteration # 14     ecut=    35.00 Ry     beta=0.70
     Davidson diagonalization with overlap
     ethr =  5.39E-11,  avg # of iterations =  2.3

     total cpu time spent up to now is     1056.6 secs

     total energy              =  -10087.02979179 Ry
     Harris-Foulkes estimate   =  -10087.02979184 Ry
     estimated scf accuracy    <       0.00000030 Ry

     iteration # 15     ecut=    35.00 Ry     beta=0.70
     Davidson diagonalization with overlap
     ethr =  3.94E-11,  avg # of iterations =  4.0

     total cpu time spent up to now is     1113.5 secs

     End of self-consistent calculation

          k = 0.2500 0.2500 0.2500 ( 99252 PWs)   bands (ev):

    -4.1924  -3.9542  -3.8370  -3.8039  -3.6434  -3.5612  -3.3971  -3.3094
    -3.2521  -3.2241  -3.1853  -3.0516  -2.9636  -2.9339  -2.8473  -2.7706
    -2.6770  -2.6369  -2.6151  -2.5263  -2.5086  -2.4209  -2.3773  -2.3022
    -2.2494  -2.1869  -2.1554  -2.1123  -2.0105  -1.9445  -1.9218  -1.8595
    -1.8164  -1.7703  -1.7042  -1.6774  -1.5913  -1.5722  -1.5196  -1.5045
    -1.4617  -1.3423  -1.3131  -1.2486  -1.1883  -1.1372  -1.0841  -1.0607
    -1.0168  -0.9874  -0.9428  -0.9011  -0.8481  -0.7928  -0.7762  -0.7077
    -0.6563  -0.6204  -0.5500  -0.5115  -0.4837  -0.4354  -0.4140  -0.3763
    -0.3447  -0.3134  -0.2580  -0.2108  -0.1842  -0.1436  -0.0855  -0.0526
    -0.0084   0.0283   0.0625   0.0865   0.1286   0.1771   0.2110   0.2578
     0.3000   0.3495   0.3738   0.4171   0.4422   0.4889   0.5068   0.5402
     0.5627   0.6213   0.6469   0.6773   0.7073   0.7585   0.7973   0.8363
     0.8538   0.9099   0.9404   0.9582   0.9846   1.0314   1.0503   1.0778
     1.1121   1.1884   1.2209   1.2272   1.2580   1.2834   1.3170   1.3335
     1.3809   1.4137   1.4350   1.4769   1.5122   1.5308   1.5742   1.5902
     1.6201   1.6691   1.6788   1.6930   1.7503   1.7863   1.8154   1.8353
     1.8752   1.9039   1.9194   1.9418   1.9544   1.9808   2.0333   2.0841
     2.1240   2.1532   2.1888   2.2086   2.2365   2.2541   2.2695   2.3076
     2.3457   2.3645   2.4099   2.4253   2.4451   2.4812   2.5004   2.5447
     2.5612   2.5949   2.6272   2.6543   2.6704   2.7022   2.7124   2.7404
     2.7587   2.8066   2.8439   2.8636   2.8844   2.9096   2.9238   2.9537
     2.9843   3.0075   3.0276   3.0454   3.0655   3.0915   3.1018   3.1235
     3.1407   3.1737   3.2022   3.2253   3.2565   3.2700   3.2915   3.3182
     3.3734   3.3910   3.4029   3.4410   3.4684   3.4839   3.5037   3.5418
     3.5775   3.6077   3.6181   3.6453   3.6671   3.7025   3.7318   3.7540
     3.7796   3.7842   3.7947   3.8291   3.8507   3.9019   3.9190   3.9405
     3.9722   3.9962   4.0045   4.0178   4.0408   4.0732   4.0836   4.1058
     4.1372   4.1533   4.1707   4.2124   4.2497   4.2782   4.2896   4.3044
     4.3226   4.3556   4.3731   4.4073   4.4170   4.4413   4.4624   4.4702
     4.4916   4.5157   4.5530   4.5687   4.5956   4.6158   4.6337   4.6557
     4.6651   4.6821   4.7086   4.7269   4.7523   4.7907   4.8065   4.8302
     4.8409   4.8666   4.8881   4.8964   4.9249   4.9599   4.9707   5.0255
     5.0340   5.0606   5.0877   5.1103   5.1337   5.1593   5.1790   5.1893
     5.2055   5.2185   5.2434   5.2635   5.2869   5.3046   5.3223   5.3470
     5.3692   5.3909   5.4162   5.4327   5.4684   5.4945   5.5109   5.5290
     5.5481   5.5662   5.6008   5.6254   5.6327   5.6484   5.6766   5.6872
     5.7092   5.7431   5.7676   5.7761   5.8015   5.8209   5.8492   5.8897
     5.9038   5.9228   5.9432   5.9590   5.9795   5.9862   6.0245   6.0435
     6.0711   6.0873   6.1105   6.1228   6.1530   6.1708   6.1832   6.2101
     6.2199   6.2427   6.2599   6.2840   6.3107   6.3173   6.3438   6.3725
     6.4014   6.4062   6.4295   6.4365   6.4544   6.4700   6.5164   6.5363
     6.5776   6.5847   6.5955   6.6372   6.6459   6.6606   6.6702   6.6942
     6.7132   6.7283   6.7577   6.7858   6.8018   6.8092   6.8370   6.8530
     6.8634   6.8837   6.9042   6.9224   6.9509   6.9632   6.9919   7.0106
     7.0372   7.0590   7.0747   7.1060   7.1200   7.1427   7.1599   7.1711
     7.1848   7.2135   7.2308   7.2529   7.2759   7.2945   7.3277   7.3353
     7.3479   7.3659   7.3852   7.4181   7.4416   7.4525   7.4701   7.4850
     7.5130   7.5299   7.5518   7.5727   7.5915   7.6025   7.6302   7.6407
     7.6658   7.6786   7.7029   7.7203   7.7480   7.7583   7.7767   7.7934
     7.8017   7.8311   7.8354   7.8709   7.9031   7.9236   7.9356   7.9573
     7.9896   7.9982   8.0124   8.0364   8.0436   8.0640   8.0920   8.1157
     8.1306   8.1361   8.1669   8.1829   8.1886   8.2099   8.2381   8.2515
     8.2663   8.2817   8.2985   8.3162   8.3334   8.3541   8.3786   8.3963
     8.4071   8.4338   8.4394   8.4649   8.4869   8.5038   8.5247   8.5398
     8.5648   8.5801   8.5908   8.6276   8.6434   8.6549   8.6858   8.6924
     8.7111   8.7439   8.7680   8.7778   8.7880   8.7994   8.8248   8.8410
     8.8741   8.8787   8.9061   8.9183   8.9397   8.9631   8.9739   8.9901
     9.0075   9.0227   9.0420   9.0579   9.0857

          k =-0.2500-0.2500 0.2500 ( 99252 PWs)   bands (ev):

    -4.1911  -3.9641  -3.8419  -3.7775  -3.6673  -3.5271  -3.4194  -3.3218
    -3.2796  -3.2035  -3.1527  -3.0716  -2.9821  -2.8979  -2.8641  -2.7789
    -2.7185  -2.6217  -2.5656  -2.5223  -2.4426  -2.4231  -2.3872  -2.3287
    -2.2938  -2.1943  -2.1542  -2.0825  -2.0375  -1.9759  -1.8888  -1.8539
    -1.8320  -1.7593  -1.7469  -1.6996  -1.6256  -1.5775  -1.4943  -1.4539
    -1.3831  -1.3507  -1.2915  -1.2457  -1.2004  -1.1476  -1.1058  -1.0719
    -1.0430  -0.9856  -0.9410  -0.8712  -0.8190  -0.7883  -0.7434  -0.6957
    -0.6574  -0.6080  -0.5725  -0.5624  -0.4960  -0.4666  -0.4376  -0.3768
    -0.3486  -0.3067  -0.2688  -0.2383  -0.1879  -0.1483  -0.0957  -0.0689
    -0.0068   0.0294   0.0609   0.1146   0.1604   0.1925   0.2337   0.2732
     0.3349   0.3477   0.3641   0.4025   0.4386   0.4873   0.5139   0.5326
     0.5954   0.6076   0.6575   0.7139   0.7345   0.7589   0.7816   0.8160
     0.8532   0.8924   0.9100   0.9584   0.9936   1.0291   1.0649   1.0945
     1.1419   1.1631   1.1748   1.2059   1.2566   1.2833   1.3057   1.3347
     1.3727   1.4193   1.4398   1.4590   1.4864   1.5252   1.5698   1.5856
     1.6156   1.6462   1.6885   1.7327   1.7546   1.7667   1.7824   1.8468
     1.8635   1.9052   1.9507   1.9658   1.9933   2.0362   2.0471   2.0996
     2.1210   2.1435   2.1730   2.2076   2.2450   2.2781   2.2913   2.3236
     2.3567   2.3664   2.3907   2.4276   2.4478   2.4852   2.5055   2.5211
     2.5414   2.5654   2.5939   2.6255   2.6591   2.6734   2.7105   2.7338
     2.7574   2.7726   2.8127   2.8364   2.8650   2.8900   2.9216   2.9402
     2.9650   3.0002   3.0210   3.0536   3.0751   3.0943   3.1390   3.1589
     3.1767   3.1864   3.2236   3.2636   3.2752   3.2864   3.3098   3.3384
     3.3762   3.3951   3.4321   3.4512   3.4690   3.5018   3.5365   3.5455
     3.5613   3.6114   3.6312   3.6516   3.6675   3.6937   3.7080   3.7417
     3.7630   3.7794   3.8154   3.8379   3.8541   3.8894   3.8982   3.9371
     3.9582   3.9730   3.9983   4.0220   4.0363   4.0797   4.0976   4.1214
     4.1351   4.1649   4.1858   4.2029   4.2124   4.2468   4.2880   4.2997
     4.3227   4.3399   4.3659   4.3826   4.4001   4.4244   4.4789   4.4844
     4.4903   4.5154   4.5301   4.5515   4.5822   4.6120   4.6234   4.6398
     4.6745   4.7039   4.7279   4.7435   4.7618   4.7833   4.8016   4.8347
     4.8510   4.8928   4.9110   4.9280   4.9409   4.9742   4.9892   5.0081
     5.0354   5.0603   5.0746   5.0959   5.1093   5.1224   5.1664   5.1763
     5.1990   5.2107   5.2410   5.2585   5.2940   5.3025   5.3359   5.3547
     5.3768   5.3947   5.4066   5.4290   5.4693   5.4824   5.5059   5.5316
     5.5462   5.5653   5.5925   5.6097   5.6235   5.6606   5.6837   5.7011
     5.7194   5.7463   5.7554   5.7880   5.8064   5.8345   5.8555   5.8914
     5.9102   5.9165   5.9359   5.9586   5.9702   6.0031   6.0237   6.0603
     6.0716   6.0967   6.1028   6.1205   6.1458   6.1624   6.1894   6.2221
     6.2339   6.2504   6.2663   6.2984   6.3123   6.3321   6.3739   6.3904
     6.3995   6.4134   6.4370   6.4595   6.4695   6.4915   6.5178   6.5428
     6.5631   6.5751   6.5887   6.6068   6.6239   6.6398   6.6527   6.6862
     6.7072   6.7163   6.7567   6.7705   6.7992   6.8196   6.8305   6.8679
     6.8753   6.8985   6.9178   6.9352   6.9475   6.9771   6.9959   7.0164
     7.0304   7.0436   7.0589   7.0838   7.0988   7.1259   7.1369   7.1507
     7.1914   7.2011   7.2318   7.2557   7.2712   7.2970   7.3017   7.3181
     7.3535   7.3696   7.3906   7.4073   7.4144   7.4377   7.4624   7.4902
     7.4994   7.5275   7.5401   7.5579   7.5787   7.5938   7.6268   7.6400
     7.6693   7.6871   7.7101   7.7351   7.7522   7.7664   7.8012   7.8156
     7.8276   7.8449   7.8615   7.8755   7.9053   7.9184   7.9419   7.9641
     7.9835   8.0011   8.0141   8.0463   8.0725   8.0800   8.1012   8.1177
     8.1329   8.1447   8.1749   8.1839   8.1964   8.2189   8.2293   8.2468
     8.2782   8.2875   8.3070   8.3100   8.3302   8.3639   8.3750   8.4038
     8.4301   8.4368   8.4665   8.4830   8.4989   8.5107   8.5206   8.5352
     8.5529   8.5781   8.6087   8.6285   8.6354   8.6493   8.6792   8.6916
     8.7054   8.7249   8.7415   8.7509   8.7909   8.8042   8.8186   8.8350
     8.8547   8.8675   8.8958   8.9233   8.9313   8.9409   8.9722   8.9845
     9.0037   9.0086   9.0254   9.0435   9.0683

          k =-0.2500 0.2500-0.2500 ( 99252 PWs)   bands (ev):

    -4.1926  -3.9564  -3.8367  -3.7923  -3.6507  -3.5638  -3.4268  -3.3211
    -3.2515  -3.1670  -3.1579  -3.0371  -3.0036  -2.9186  -2.8713  -2.7907
    -2.7020  -2.6616  -2.5807  -2.5459  -2.4759  -2.4222  -2.3568  -2.3254
    -2.2603  -2.1890  -2.0857  -2.0632  -2.0386  -1.9708  -1.9392  -1.8545
    -1.8329  -1.7695  -1.7358  -1.6883  -1.6082  -1.5558  -1.5047  -1.4679
    -1.4343  -1.3829  -1.3166  -1.2825  -1.1743  -1.1137  -1.0819  -1.0588
    -1.0012  -0.9632  -0.9452  -0.9056  -0.8391  -0.8173  -0.7500  -0.7249
    -0.6480  -0.6211  -0.5907  -0.5248  -0.5022  -0.4587  -0.4473  -0.3995
    -0.3557  -0.2935  -0.2678  -0.2062  -0.1544  -0.1146  -0.0674  -0.0319
     0.0029   0.0400   0.0716   0.0961   0.1444   0.1780   0.2122   0.2570
     0.2954   0.3459   0.3618   0.4350   0.4569   0.4849   0.5457   0.5530
     0.5906   0.6316   0.6581   0.6967   0.7077   0.7542   0.7764   0.8019
     0.8559   0.8874   0.9114   0.9276   0.9487   0.9963   1.0393   1.0684
     1.1042   1.1387   1.1781   1.2218   1.2348   1.2673   1.3196   1.3445
     1.3680   1.3951   1.4295   1.4873   1.5121   1.5485   1.5796   1.6022
     1.6393   1.6619   1.6894   1.7384   1.7721   1.7974   1.8204   1.8583
     1.8969   1.9214   1.9669   1.9833   2.0216   2.0331   2.0540   2.0820
     2.1091   2.1274   2.1802   2.2013   2.2265   2.2526   2.2987   2.3248
     2.3449   2.3687   2.3902   2.4106   2.4352   2.4696   2.5089   2.5230
     2.5673   2.5938   2.6124   2.6468   2.6691   2.6969   2.7136   2.7426
     2.7614   2.7793   2.7899   2.8456   2.8650   2.8796   2.9139   2.9365
     2.9478   2.9768   3.0053   3.0296   3.0406   3.0824   3.1024   3.1395
     3.1609   3.1860   3.2063   3.2257   3.2787   3.2977   3.3063   3.3340
     3.3732   3.4030   3.4179   3.4479   3.4589   3.4799   3.5149   3.5554
     3.5700   3.5933   3.6267   3.6681   3.6844   3.6981   3.7278   3.7461
     3.7594   3.7885   3.8148   3.8525   3.8643   3.8875   3.9045   3.9211
     3.9680   3.9843   4.0074   4.0166   4.0438   4.0692   4.0973   4.1169
     4.1317   4.1651   4.1908   4.2097   4.2318   4.2449   4.2613   4.2912
     4.3117   4.3588   4.3713   4.3861   4.4099   4.4334   4.4528   4.4766
     4.5023   4.5277   4.5333   4.5740   4.5947   4.6159   4.6375   4.6667
     4.6915   4.7055   4.7315   4.7474   4.7841   4.8062   4.8392   4.8549
     4.8642   4.8995   4.9121   4.9211   4.9553   4.9692   4.9979   5.0079
     5.0245   5.0570   5.0681   5.0999   5.1266   5.1536   5.1669   5.1906
     5.2115   5.2345   5.2453   5.2757   5.2906   5.3029   5.3198   5.3410
     5.3808   5.3859   5.3985   5.4293   5.4465   5.4735   5.4916   5.5118
     5.5230   5.5568   5.5728   5.5879   5.6159   5.6401   5.6426   5.6725
     5.7000   5.7276   5.7546   5.7697   5.7903   5.8362   5.8600   5.8701
     5.8946   5.9154   5.9466   5.9708   5.9854   5.9890   6.0110   6.0415
     6.0507   6.0763   6.0990   6.1128   6.1427   6.1775   6.2036   6.2172
     6.2346   6.2702   6.2891   6.2974   6.3073   6.3257   6.3393   6.3562
     6.3776   6.4014   6.4287   6.4436   6.4663   6.4918   6.5157   6.5362
     6.5645   6.5726   6.5921   6.6300   6.6485   6.6572   6.6713   6.6941
     6.7305   6.7494   6.7596   6.7923   6.8101   6.8163   6.8284   6.8503
     6.8786   6.8963   6.9081   6.9316   6.9430   6.9612   6.9861   7.0088
     7.0193   7.0496   7.0838   7.1012   7.1200   7.1370   7.1577   7.1732
     7.2091   7.2188   7.2438   7.2611   7.2843   7.2976   7.3230   7.3363
     7.3631   7.3846   7.3969   7.4123   7.4297   7.4515   7.4678   7.4897
     7.5040   7.5211   7.5522   7.5652   7.5852   7.6123   7.6282   7.6514
     7.6670   7.6921   7.7031   7.7251   7.7402   7.7540   7.7709   7.7968
     7.8149   7.8356   7.8692   7.8915   7.9107   7.9321   7.9471   7.9584
     7.9778   7.9953   8.0240   8.0354   8.0598   8.0755   8.0880   8.1096
     8.1242   8.1342   8.1579   8.1789   8.2024   8.2283   8.2391   8.2543
     8.2726   8.2907   8.2932   8.3108   8.3362   8.3490   8.3603   8.3871
     8.4181   8.4264   8.4500   8.4630   8.4909   8.5156   8.5203   8.5353
     8.5575   8.5657   8.6034   8.6286   8.6369   8.6665   8.6768   8.6923
     8.7123   8.7208   8.7306   8.7465   8.7770   8.7909   8.8107   8.8256
     8.8612   8.8721   8.8909   8.9067   8.9180   8.9394   8.9569   8.9757
     9.0059   9.0165   9.0498   9.0607   9.0718

          k = 0.2500-0.2500-0.2500 ( 99252 PWs)   bands (ev):

    -4.1917  -3.9592  -3.8443  -3.7821  -3.6650  -3.5423  -3.3952  -3.3307
    -3.2570  -3.2273  -3.1562  -3.0496  -2.9789  -2.9110  -2.8758  -2.7588
    -2.6889  -2.6655  -2.6083  -2.5351  -2.4748  -2.4277  -2.3651  -2.2838
    -2.2333  -2.1799  -2.1454  -2.0830  -2.0524  -1.9563  -1.9298  -1.8444
    -1.8290  -1.7891  -1.7640  -1.6646  -1.6477  -1.5758  -1.5043  -1.4707
    -1.4020  -1.3264  -1.3117  -1.2612  -1.2161  -1.1162  -1.0923  -1.0697
    -1.0091  -0.9588  -0.9192  -0.8772  -0.8491  -0.8119  -0.7598  -0.7343
    -0.6788  -0.6354  -0.5459  -0.5238  -0.4995  -0.4354  -0.4087  -0.3827
    -0.3192  -0.2916  -0.2438  -0.2066  -0.1867  -0.1342  -0.1192  -0.0514
    -0.0299   0.0070   0.0442   0.1117   0.1299   0.1817   0.2047   0.2641
     0.3109   0.3361   0.3830   0.3968   0.4177   0.4902   0.5347   0.5709
     0.5920   0.6096   0.6277   0.6657   0.7177   0.7618   0.7946   0.8382
     0.8581   0.8946   0.9179   0.9554   0.9871   1.0250   1.0549   1.1145
     1.1296   1.1463   1.1815   1.2072   1.2453   1.2974   1.3320   1.3440
     1.3798   1.4310   1.4516   1.4754   1.5142   1.5338   1.5861   1.6059
     1.6300   1.6703   1.7093   1.7183   1.7497   1.7979   1.8213   1.8416
     1.8680   1.8835   1.9224   1.9538   1.9998   2.0235   2.0315   2.0603
     2.1030   2.1368   2.1475   2.1698   2.2156   2.2464   2.2854   2.3094
     2.3448   2.3599   2.3929   2.4255   2.4581   2.4787   2.5057   2.5305
     2.5523   2.5779   2.6060   2.6301   2.6708   2.6831   2.7174   2.7557
     2.7749   2.7948   2.8095   2.8313   2.8597   2.8957   2.9109   2.9456
     2.9776   2.9987   3.0213   3.0480   3.0622   3.0799   3.1020   3.1208
     3.1531   3.2067   3.2222   3.2580   3.2782   3.3045   3.3283   3.3707
     3.3819   3.3995   3.4337   3.4434   3.4647   3.4975   3.5301   3.5370
     3.5723   3.5956   3.6289   3.6416   3.6688   3.6970   3.7118   3.7447
     3.7690   3.7962   3.8128   3.8400   3.8669   3.8950   3.9096   3.9263
     3.9617   3.9816   3.9973   4.0117   4.0389   4.0503   4.0825   4.1079
     4.1400   4.1713   4.1839   4.2130   4.2297   4.2558   4.2800   4.3061
     4.3452   4.3495   4.3737   4.4079   4.4206   4.4351   4.4809   4.4878
     4.5171   4.5308   4.5464   4.5675   4.5854   4.6109   4.6343   4.6515
     4.6661   4.7005   4.7186   4.7289   4.7635   4.7957   4.8053   4.8268
     4.8508   4.8664   4.8893   4.9211   4.9523   4.9549   4.9839   5.0095
     5.0235   5.0407   5.0577   5.0794   5.1127   5.1161   5.1418   5.1691
     5.1951   5.2117   5.2342   5.2781   5.2879   5.3050   5.3198   5.3393
     5.3562   5.3810   5.4262   5.4460   5.4521   5.4730   5.4976   5.5129
     5.5410   5.5695   5.5839   5.5973   5.6226   5.6422   5.6659   5.7020
     5.7171   5.7429   5.7650   5.7766   5.7911   5.8176   5.8478   5.8684
     5.9208   5.9293   5.9559   5.9799   5.9961   6.0129   6.0399   6.0537
     6.0742   6.0835   6.1061   6.1201   6.1513   6.1654   6.1880   6.2022
     6.2312   6.2594   6.2824   6.3034   6.3384   6.3421   6.3662   6.3825
     6.4015   6.4143   6.4361   6.4545   6.4870   6.5047   6.5163   6.5342
     6.5525   6.5713   6.5979   6.6224   6.6529   6.6731   6.6964   6.7060
     6.7215   6.7442   6.7599   6.7808   6.8013   6.8190   6.8374   6.8507
     6.8800   6.8955   6.9160   6.9400   6.9597   6.9743   6.9900   7.0212
     7.0387   7.0454   7.0709   7.0922   7.0983   7.1120   7.1529   7.1667
     7.1805   7.2016   7.2106   7.2351   7.2571   7.2626   7.3017   7.3334
     7.3464   7.3641   7.3901   7.4093   7.4209   7.4535   7.4618   7.4834
     7.5050   7.5244   7.5318   7.5741   7.5947   7.6148   7.6285   7.6377
     7.6727   7.6912   7.7120   7.7235   7.7427   7.7596   7.7703   7.7837
     7.7896   7.8308   7.8558   7.8680   7.8818   7.9014   7.9240   7.9433
     7.9520   7.9753   7.9924   8.0226   8.0405   8.0649   8.0925   8.0988
     8.1218   8.1510   8.1657   8.1874   8.1956   8.2059   8.2289   8.2647
     8.2781   8.2932   8.3263   8.3487   8.3561   8.3811   8.3955   8.4277
     8.4383   8.4535   8.4678   8.4868   8.4931   8.5114   8.5469   8.5606
     8.5693   8.5815   8.6055   8.6218   8.6364   8.6479   8.6778   8.6965
     8.7148   8.7376   8.7528   8.7789   8.7896   8.7967   8.8263   8.8393
     8.8527   8.8762   8.8904   8.9083   8.9181   8.9434   8.9727   8.9853
     9.0053   9.0277   9.0366   9.0614   9.0704

     the Fermi energy is     7.6527 ev

!    total energy              =  -10087.02979179 Ry
     Harris-Foulkes estimate   =  -10087.02979182 Ry
     estimated scf accuracy    <       0.00000003 Ry

     total all-electron energy =   -124299.581930 Ry

     The total energy is the sum of the following terms:

     one-electron contribution =     685.79643117 Ry
     hartree contribution      =      67.27725527 Ry
     xc contribution           =    -792.86444411 Ry
     ewald contribution        =   -1272.29960192 Ry
     one-center paw contrib.   =   -8774.91017731 Ry
     smearing contrib. (-TS)   =      -0.02925489 Ry

     convergence has been achieved in  15 iterations

     Forces acting on atoms (Ry/au):

     atom    1 type  1   force =     0.02816131    0.01187289   -0.07132792
     atom    2 type  1   force =     0.03716345    0.13464387   -0.15972244
     atom    3 type  1   force =     0.17830885   -0.17352999    0.05930032
     atom    4 type  1   force =     0.03357794    0.27409419   -0.03352939
     atom    5 type  1   force =    -0.27651201   -0.32302065   -0.15827271
     atom    6 type  1   force =    -0.23243738    0.04072586    0.08206687
     atom    7 type  1   force =     0.39830629    0.29373534    0.06614194
     atom    8 type  1   force =     0.12717807   -0.10616267    0.09969306
     atom    9 type  1   force =     0.02778240   -0.09303793    0.21891209
     atom   10 type  1   force =    -0.17798701    0.09735678   -0.15001363
     atom   11 type  1   force =    -0.16819906    0.00851477    0.03082866
     atom   12 type  1   force =     0.16609588   -0.00933174   -0.05604302
     atom   13 type  1   force =     0.22716121   -0.14886786    0.16117203
     atom   14 type  1   force =     0.16706679   -0.07474928   -0.14636509
     atom   15 type  1   force =     0.21868506    0.17266644   -0.38435449
     atom   16 type  1   force =    -0.20313498   -0.09879205    0.19642676
     atom   17 type  1   force =    -0.34649726   -0.02191555    0.17204047
     atom   18 type  1   force =    -0.06971718    0.25198475   -0.07697081
     atom   19 type  1   force =    -0.08802027   -0.11227812    0.19605165
     atom   20 type  1   force =    -0.03333641   -0.08147214   -0.03863283
     atom   21 type  1   force =     0.46944819    0.00557463    0.52016457
     atom   22 type  1   force =    -0.00144597   -0.06479636   -0.02970725
     atom   23 type  1   force =    -0.05075574   -0.00890147   -0.06576319
     atom   24 type  1   force =     0.13570647   -0.28897625    0.24734230
     atom   25 type  1   force =    -0.35844388    0.09799578   -0.33513036
     atom   26 type  1   force =     0.11249874   -0.31915397   -0.44692245
     atom   27 type  1   force =     0.45195483    0.05726822    0.28797443
     atom   28 type  1   force =    -0.63253077   -0.94208111   -0.56077922
     atom   29 type  1   force =     0.09820875   -0.02486002   -0.10971360
     atom   30 type  1   force =     0.14951057   -0.07257738   -0.11449036
     atom   31 type  1   force =    -0.05663439   -0.17495049    0.14803407
     atom   32 type  1   force =    -0.03522442   -0.46323231   -0.00855106
     atom   33 type  1   force =     0.02009202   -0.07237290   -0.04943247
     atom   34 type  1   force =    -0.06148266    0.00319332    0.14902396
     atom   35 type  1   force =     0.09874865    0.00542743   -0.04161470
     atom   36 type  1   force =     0.03543145    0.05916637    0.09839373
     atom   37 type  1   force =    -0.16513912    0.16338307   -0.24827766
     atom   38 type  1   force =     0.10445202   -0.10740641    0.04035512
     atom   39 type  1   force =    -0.04936971   -0.02149257    0.04853002
     atom   40 type  1   force =    -0.10005663   -0.03287505    0.16688822
     atom   41 type  1   force =     0.09110717   -0.02225678    0.04642072
     atom   42 type  1   force =    -0.36613469   -0.49216063    0.01920191
     atom   43 type  1   force =     0.55957514    0.89884355    0.13864011
     atom   44 type  1   force =    -0.00684973   -0.06461364   -0.05905594
     atom   45 type  1   force =    -0.22616356    0.53909201    0.74562794
     atom   46 type  1   force =     0.09050981   -0.66321149   -0.42621738
     atom   47 type  1   force =     0.26283220    0.28882631   -0.03205464
     atom   48 type  1   force =    -0.14936753   -0.01820133   -0.11819667
     atom   49 type  1   force =     0.03783783    0.19659012    0.17293836
     atom   50 type  1   force =     0.18436243   -0.02272820    0.10920002
     atom   51 type  1   force =    -0.10152479    0.08125677   -0.04302399
     atom   52 type  1   force =    -0.10669867   -0.02176221    0.01276743
     atom   53 type  1   force =    -0.05129993    0.02066475   -0.11717469
     atom   54 type  1   force =    -0.76971957    0.33571585    0.74209915
     atom   55 type  1   force =     0.08362634   -0.01162260    0.02612984
     atom   56 type  1   force =     0.20436165    0.48265532   -0.46604224
     atom   57 type  1   force =     0.28470284   -0.31376006    0.75501250
     atom   58 type  1   force =    -0.01977931    0.10876984   -0.11676634
     atom   59 type  1   force =    -0.05241189    0.02081053    0.23330923
     atom   60 type  1   force =    -0.10884764    0.04306207   -0.11939278
     atom   61 type  1   force =    -0.16959767    0.03071305   -0.02377358
     atom   62 type  1   force =     0.15711692    0.08439257    0.11974758
     atom   63 type  1   force =    -0.00505019    0.59922813    0.51697018
     atom   64 type  1   force =    -0.01011898    0.02405748   -0.07340674
     atom   65 type  1   force =     0.05859801   -0.03815554    0.05651001
     atom   66 type  1   force =     0.03777673   -0.19190500    0.10946189
     atom   67 type  1   force =    -0.02010945    0.08412291   -0.16992372
     atom   68 type  1   force =     0.24445028   -0.09517192    0.28560195
     atom   69 type  1   force =    -0.25242860   -0.23073499   -0.58374537
     atom   70 type  1   force =     0.16581986    0.05872405    0.09956329
     atom   71 type  1   force =     0.58791529   -0.14904154    0.39376520
     atom   72 type  1   force =    -0.11554457    0.36697564    0.01331537
     atom   73 type  1   force =     0.00056399   -0.12786437    0.26821481
     atom   74 type  1   force =    -0.02377064   -0.16384558    0.14773424
     atom   75 type  1   force =    -0.10489794    0.14730772   -0.05650822
     atom   76 type  1   force =    -0.17331108   -0.32810451   -0.37083496
     atom   77 type  1   force =     0.30630107   -0.03467553   -0.06889837
     atom   78 type  1   force =     0.07411363   -0.08307906    0.09709619
     atom   79 type  1   force =    -0.31554447    0.11172893   -0.37277555
     atom   80 type  1   force =    -0.20601962   -0.04402656   -0.20586045
     atom   81 type  1   force =    -0.43342595   -0.16428091   -0.17091733
     atom   82 type  1   force =     0.24957738    0.32962587   -0.30097199
     atom   83 type  1   force =     0.41683085   -0.38575809    0.35889581
     atom   84 type  1   force =    -0.36411859    0.24248251   -0.05799221
     atom   85 type  1   force =     0.03652816   -0.03754219    0.09001268
     atom   86 type  1   force =     0.14599944    0.03040266    0.22952037
     atom   87 type  1   force =     0.01446537    0.16148030   -0.13473220
     atom   88 type  1   force =     0.00001241    0.03335702   -0.03274994
     atom   89 type  1   force =     0.03633666    0.04327210    0.01978286
     atom   90 type  1   force =     0.13778233   -0.76571099   -0.58379274
     atom   91 type  1   force =     0.09971613    0.10738014   -0.06774254
     atom   92 type  1   force =     0.17405591    0.07065328   -0.07646492
     atom   93 type  1   force =    -0.10022337    0.26372366    0.36123755
     atom   94 type  1   force =    -0.18191628   -0.06839461    0.21804425
     atom   95 type  1   force =     0.09937540    0.07029621   -0.06532031
     atom   96 type  1   force =     0.08085873   -0.07041361   -0.07358160
     atom   97 type  1   force =    -0.08086496   -0.03472316   -0.17726383
     atom   98 type  1   force =     0.04733471   -0.19194686   -0.11768183
     atom   99 type  1   force =     0.28486817   -0.00136595    0.01847112
     atom  100 type  1   force =    -0.18276247   -0.01093916   -0.05555008
     atom  101 type  1   force =    -0.17336986    0.03669352    0.14770376
     atom  102 type  1   force =     0.13721573    0.02721875    0.17526695
     atom  103 type  1   force =     0.00406046    0.00944588    0.04381296
     atom  104 type  1   force =    -0.04047462   -0.06742667    0.02029913
     atom  105 type  1   force =    -0.10012456    0.07787646   -0.08620584
     atom  106 type  1   force =     0.01390210   -0.05905729    0.09472784
     atom  107 type  1   force =     0.07624954    0.71513698    0.43226909
     atom  108 type  1   force =    -0.01318580   -0.16194664    0.06671602
     atom  109 type  1   force =    -0.23707192    0.11254721    0.19905320
     atom  110 type  1   force =     0.01317285   -0.27637965    0.21888062
     atom  111 type  1   force =    -0.29808298    0.04363610    0.05926570
     atom  112 type  1   force =    -0.03213172    0.02959721   -0.07630683
     atom  113 type  1   force =     0.00333310   -0.01185550    0.06576480
     atom  114 type  1   force =     0.02332094   -0.16531288    0.09596594
     atom  115 type  1   force =     0.06807627    0.27885434    0.15215084
     atom  116 type  1   force =    -0.07442582   -0.08287591    0.03943418
     atom  117 type  1   force =     0.41178285    0.34295055   -0.21664775
     atom  118 type  1   force =    -0.00438562    0.06077700   -0.03707516
     atom  119 type  1   force =    -0.04936702    0.01702970    0.04189461
     atom  120 type  1   force =     0.08828500   -0.10236801    0.01792762
     atom  121 type  1   force =     0.07622528    0.12854726   -0.14956997
     atom  122 type  1   force =    -1.42717254   -0.20621548    1.38388948
     atom  123 type  1   force =     0.09366305    0.28864281   -0.24306008
     atom  124 type  1   force =     0.00099745    0.01066195   -0.00682378
     atom  125 type  1   force =    -0.06466154   -0.01725617    0.02505342
     atom  126 type  1   force =    -0.10880731    0.02050098   -0.08417252
     atom  127 type  1   force =    -0.26957364    0.22390893    0.00752365
     atom  128 type  1   force =     0.79490539   -0.16633567   -0.76181713
     atom  129 type  1   force =     0.25291091    0.14013631    0.34443640
     atom  130 type  1   force =    -0.28917242    0.12205917    0.28265260
     atom  131 type  1   force =    -0.04582833    0.07174693   -0.02929106
     atom  132 type  1   force =    -0.12921915   -0.49233644    0.05409061
     atom  133 type  1   force =    -0.09264785   -0.10679974   -0.33063106
     atom  134 type  1   force =    -0.04346398   -0.02386436    0.05843813
     atom  135 type  1   force =     0.18385529    0.00154193   -0.00860229
     atom  136 type  1   force =    -0.03626926    0.20135782    0.16946923
     atom  137 type  1   force =     0.20819426    0.43664900    0.41086385
     atom  138 type  1   force =    -0.10313145    0.09645892    0.08979342
     atom  139 type  1   force =    -0.41075775    0.23227062   -0.10284177
     atom  140 type  1   force =    -0.13263384   -0.18167336    0.10344516
     atom  141 type  1   force =    -0.04713623   -0.22546402   -0.26711328
     atom  142 type  1   force =    -0.32918999   -0.03911759   -0.01676583
     atom  143 type  1   force =     0.07012773   -0.02472400   -0.00054011
     atom  144 type  1   force =    -0.06174044    0.27233520    0.16037105
     atom  145 type  1   force =    -0.09468266    0.15691364   -0.22976711
     atom  146 type  1   force =     0.09990884   -0.00035185    0.12129773
     atom  147 type  1   force =     0.61099006    0.32430025   -0.31109869
     atom  148 type  1   force =    -0.07703896    0.00925311   -0.08442154
     atom  149 type  1   force =    -0.41242733   -0.09474165    0.42058559
     atom  150 type  1   force =     0.11805982   -0.07752689    0.11194319
     atom  151 type  1   force =     0.06239099   -0.09401205   -0.03138828
     atom  152 type  1   force =    -0.08825681    0.07898234    0.04990075
     atom  153 type  1   force =    -0.00333097    0.08961090   -0.11759862
     atom  154 type  1   force =     0.10519512   -0.14059000    0.09065248
     atom  155 type  1   force =     0.09523524    0.05728886    0.03549519
     atom  156 type  1   force =     0.25028844    0.09437398   -0.30860962
     atom  157 type  1   force =     0.06183559   -0.17788587    0.14767814
     atom  158 type  1   force =    -0.24750969    0.03080600    0.19724884
     atom  159 type  1   force =    -0.08371636    0.07998758    0.10506536
     atom  160 type  1   force =    -0.09032465    0.00491187   -0.06882718
     atom  161 type  1   force =     0.01336316   -0.08695826    0.31234507
     atom  162 type  1   force =    -0.19866170   -0.24187076   -0.01794978
     atom  163 type  1   force =     0.20137546    0.04754726   -0.28920240
     atom  164 type  1   force =    -0.01281885   -0.03127659   -0.00172362
     atom  165 type  1   force =    -0.21030938   -0.07675912    0.08797102
     atom  166 type  1   force =    -0.68067114    0.64236976   -0.12573144
     atom  167 type  1   force =     0.14040186    0.00568206   -0.11442965
     atom  168 type  1   force =    -0.07430114    0.15461502    0.11499691
     atom  169 type  1   force =    -0.18707627    0.11294305    0.10632541
     atom  170 type  1   force =    -0.01134530   -0.06108759   -0.12385578
     atom  171 type  1   force =    -0.05868627   -0.07934206   -0.00471498
     atom  172 type  1   force =    -0.14764476   -0.05598955    0.12698038
     atom  173 type  1   force =     0.20573322    0.01270025   -0.29328819
     atom  174 type  1   force =     0.07065481   -0.24615102    0.10222417
     atom  175 type  1   force =     0.12105303    0.05488078   -0.08490622
     atom  176 type  1   force =     0.23268680   -0.24422295   -0.09209246
     atom  177 type  1   force =     0.01719555    0.09995763   -0.03391883
     atom  178 type  1   force =     0.03300850   -0.05204028   -0.01933101
     atom  179 type  1   force =    -0.10677573    0.23771445    0.20661077
     atom  180 type  1   force =    -0.08517092   -0.02580903    0.09977087
     atom  181 type  1   force =     0.10237122    0.06814800   -0.05683909
     atom  182 type  1   force =    -0.17025959   -0.14682892    0.20482013
     atom  183 type  1   force =    -0.10451356    0.00586856   -0.08704044
     atom  184 type  1   force =     1.03468034   -0.21076475   -1.67579113
     atom  185 type  1   force =     0.01267393    0.00646960   -0.04047072
     atom  186 type  1   force =    -0.11083641   -0.03647999   -0.14484061
     atom  187 type  1   force =     0.10875489    0.04878944   -0.22917942
     atom  188 type  1   force =     0.10292500   -0.09836109    0.01915182
     atom  189 type  1   force =    -0.28456417    0.05967901    0.09279122
     atom  190 type  1   force =    -0.02134250    0.13257901   -0.02943364
     atom  191 type  1   force =     0.04963591    0.07796867   -0.00984420
     atom  192 type  1   force =     0.23452423   -0.13488056    0.05766550
     atom  193 type  1   force =     0.08451995   -0.13197069    0.07552536
     atom  194 type  1   force =     0.00347555   -0.02344627   -0.03472967
     atom  195 type  1   force =    -0.24237448   -0.12971909   -0.03736395
     atom  196 type  1   force =     0.02597218    0.00105669   -0.03238451
     atom  197 type  1   force =    -0.01802680    0.02290498    0.01513340
     atom  198 type  1   force =    -0.03362136   -0.02339679   -0.03422434
     atom  199 type  1   force =    -0.06949594   -0.15668235   -0.21142689
     atom  200 type  1   force =     0.00019684    0.19501868   -0.40741366
     atom  201 type  1   force =     0.15629410   -0.14472618    0.31759523
     atom  202 type  1   force =    -0.29391049    0.21849252    0.19163102
     atom  203 type  1   force =     0.27339998   -0.15170610    0.04352780
     atom  204 type  1   force =    -0.12343233    0.34339036   -0.17351727
     atom  205 type  1   force =     0.24180354   -0.31726783    0.30631463
     atom  206 type  1   force =     0.21449942   -0.09027524    0.02735880
     atom  207 type  1   force =    -0.03355048    0.08655141    0.09355008
     atom  208 type  1   force =     0.29973452    0.01933010   -0.30244756
     atom  209 type  1   force =    -0.08188078   -0.08572981   -0.03365012
     atom  210 type  1   force =     0.00809341    0.20384937    0.06648232
     atom  211 type  1   force =     0.03739016   -0.02091413   -0.00826685
     atom  212 type  1   force =    -0.02412112   -0.00718519    0.10440075
     atom  213 type  1   force =    -0.03044609   -0.00155071   -0.00404859
     atom  214 type  1   force =     0.04029208    0.11491886   -0.02079288
     atom  215 type  1   force =    -0.04620714    0.01699510    0.10787018
     atom  216 type  1   force =    -0.34430137   -0.25245702   -0.09335940
     atom  217 type  1   force =    -0.06806155   -0.04381817   -0.09499474
     atom  218 type  1   force =     0.02347836    0.48509873   -0.50110978
     atom  219 type  1   force =    -0.09489722   -0.50580863    0.54702295
     atom  220 type  1   force =     0.22603421    0.05215435   -0.11972706
     atom  221 type  1   force =     0.07414987    0.31264715   -0.08187491
     atom  222 type  1   force =    -0.10234571   -0.03172937   -0.03491943
     atom  223 type  1   force =    -0.50478062   -0.08564623   -0.51439146
     atom  224 type  1   force =     0.02804258   -0.37452391    0.27839131
     atom  225 type  1   force =    -0.00853050    0.06590691   -0.04137516
     atom  226 type  1   force =    -0.04127232    0.09165593    0.02431583
     atom  227 type  1   force =    -0.09036473   -0.22296323   -0.17243118
     atom  228 type  1   force =    -0.05928922   -0.08937841   -0.18325519
     atom  229 type  1   force =     0.66563313   -0.66738673    0.08569249
     atom  230 type  1   force =     0.16153006    0.11107310    0.23316066
     atom  231 type  1   force =     0.43724396    0.22435977   -0.04823086
     atom  232 type  1   force =     0.07033403   -0.15461021   -0.05579544
     atom  233 type  1   force =    -0.10694214    0.01052043    0.11045904
     atom  234 type  1   force =    -0.00418626   -0.04022218   -0.03283392
     atom  235 type  1   force =    -0.21089954    0.20345505   -0.02323246
     atom  236 type  1   force =     0.13738361    0.04819089    0.09194367
     atom  237 type  1   force =    -0.03779228    0.39361571   -0.25453499
     atom  238 type  1   force =    -0.06638846   -0.06883596    0.08734589
     atom  239 type  1   force =     0.01907252   -0.04021927   -0.04366199
     atom  240 type  1   force =     0.12912757   -0.16213434   -0.27952192
     atom  241 type  1   force =     0.11150855    0.16969877    0.07682906
     atom  242 type  1   force =    -0.03461405    0.06240475   -0.07022162
     atom  243 type  1   force =    -0.40290962   -0.22765255   -0.27674736
     atom  244 type  1   force =     0.23019781    0.07382526   -0.26176775
     atom  245 type  1   force =    -0.23539965    0.09765746   -0.03135824
     atom  246 type  1   force =    -0.03362389    0.05812530    0.05677835
     atom  247 type  1   force =     0.16550099    0.01166093    0.22210640
     atom  248 type  1   force =    -0.02862046   -0.19597761   -0.17788581
     atom  249 type  1   force =     0.09914027    0.17488299    0.20671777
     atom  250 type  1   force =     0.05876760    0.00133878    0.02748175
     atom  251 type  1   force =    -0.05135684    0.07490862   -0.06726080
     atom  252 type  1   force =     0.39773499   -0.25499655    0.10524106
     atom  253 type  1   force =     0.04648509   -0.02514671    0.00003463
     atom  254 type  1   force =    -0.22779718    0.05659985   -0.33090431
     atom  255 type  1   force =     0.01415878   -0.02677157    0.01829954
     atom  256 type  1   force =     0.10589063    0.01559407    0.07092546

     Total force =     6.434615     Total SCF correction =     0.000257


     entering subroutine stress ...

          total   stress  (Ry/bohr**3)                   (kbar)     P=  313.97
   0.00208315  -0.00009076  -0.00012872        306.44    -13.35    -18.94
  -0.00009076   0.00201355   0.00003420        -13.35    296.20      5.03
  -0.00012872   0.00003420   0.00230624        -18.94      5.03    339.26


     Writing output data file 4e9520ba65856_2cd7.save

     init_run     :     59.33s CPU     41.87s WALL (       1 calls)
     electrons    :   1529.41s CPU   1070.71s WALL (       1 calls)
     forces       :     23.29s CPU     14.18s WALL (       1 calls)
     stress       :     74.00s CPU     65.49s WALL (       1 calls)

     Called by init_run:
     wfcinit      :     55.17s CPU     38.22s WALL (       1 calls)
     potinit      :      0.59s CPU      0.46s WALL (       1 calls)

     Called by electrons:
     c_bands      :   1345.28s CPU    933.21s WALL (      15 calls)
     sum_band     :    147.45s CPU     95.32s WALL (      15 calls)
     v_of_rho     :      2.32s CPU      2.02s WALL (      16 calls)
     newd         :     26.86s CPU     13.66s WALL (      16 calls)
     mix_rho      :      2.47s CPU      2.39s WALL (      15 calls)

     Called by c_bands:
     init_us_2    :      1.57s CPU      1.68s WALL (     132 calls)
     cegterg      :   1341.52s CPU    929.42s WALL (      60 calls)

     Called by *egterg:
     h_psi        :    648.67s CPU    456.58s WALL (     262 calls)
     s_psi        :    188.48s CPU    100.62s WALL (     262 calls)
     g_psi        :      0.36s CPU      0.37s WALL (     198 calls)
     cdiaghg      :    237.13s CPU    220.22s WALL (     258 calls)

     Called by h_psi:
     add_vuspsi   :    188.10s CPU    101.36s WALL (     262 calls)

     General routines
     calbec       :    274.97s CPU    155.66s WALL (     330 calls)
     fft          :      4.10s CPU      3.82s WALL (     277 calls)
     ffts         :      1.07s CPU      0.99s WALL (     241 calls)
     fftw         :    290.92s CPU    268.34s WALL (  182412 calls)
     interpolate  :      0.52s CPU      0.48s WALL (      31 calls)
     davcio       :      0.00s CPU      0.06s WALL (       4 calls)

     Parallel routines
     fft_scatter  :    258.83s CPU    204.39s WALL (  182930 calls)

     PAW routines
     PAW_pot      :      4.67s CPU      2.75s WALL (      16 calls)
     PAW_ddot     :      1.01s CPU      0.99s WALL (     391 calls)

     PWSCF        : 28m 9.53s CPU    19m57.05s WALL


   This run was terminated on:  11: 5:30  22Oct2013            

=------------------------------------------------------------------------------=
   JOB DONE.
=------------------------------------------------------------------------------=
Application 6034827 resources: utime ~221268s, stime ~4702s
