
     Program PWSCF v.5.0.2 (svn rev. 9392) starts on 24Oct2013 at 10:43:42 

     This program is part of the open-source Quantum ESPRESSO suite
     for quantum simulation of materials; please cite
         "P. Giannozzi et al., J. Phys.:Condens. Matter 21 395502 (2009);
          URL http://www.quantum-espresso.org", 
     in publications or presentations arising from this work. More details at
     http://www.quantum-espresso.org/quote.php

     Parallel version (MPI & OpenMP), running on     256 processor cores
     Number of MPI processes:               128
     Threads/MPI process:                     2
     R & G space division:  proc/nbgrp/npool/nimage =     128

     Current dimensions of program PWSCF are:
     Max number of different atomic species (ntypx) = 10
     Max number of k-points (npk) =  40000
     Max angular momentum in pseudopotentials (lmaxx) =  3
     Waiting for input...
     Reading input from standard input
               file Pd.pbe-n-kjpaw_psl.0.3.0.UPF: wavefunction(s)  5S 4D renormalized

     gamma-point specific algorithms are used

     Subspace diagonalization in iterative solution of the eigenvalue problem:
     scalapack distributed-memory algorithm (size of sub-group:  8*  8 procs)

     Found symmetry operation: I + (  0.1250  0.1250  0.0000)
     This is a supercell, fractional translations are disabled

     Parallelization info
     --------------------
     sticks:   dense  smooth     PW     G-vecs:    dense   smooth      PW
     Min         127     127     42                12328    12328    2398
     Max         130     130     44                12344    12344    2420
     Sum       16413   16413   5513              1578797  1578797  307987
     Tot        8207    8207   2757



     bravais-lattice index     =           14
     lattice parameter (alat)  =      29.8000  a.u.
     unit-cell volume          =   26463.5920 (a.u.)^3
     number of atoms/cell      =          256
     number of atomic types    =            1
     number of electrons       =      2560.00
     number of Kohn-Sham states=         1536
     kinetic-energy cutoff     =      78.0000  Ry
     charge density cutoff     =     232.0000  Ry
     convergence threshold     =      1.0E-07
     mixing beta               =       0.7000
     number of iterations used =            8  TF        mixing
     Exchange-correlation      =  SLA  PW   PBX  PBC ( 1 4 3 4 0)
     EXX-fraction              =        0.00
     nstep                     =          200


     celldm(1)=  29.800000  celldm(2)=   1.000000  celldm(3)=   1.000000
     celldm(4)=   0.000000  celldm(5)=   0.000000  celldm(6)=   0.000000

     crystal axes: (cart. coord. in units of alat)
               a(1) = (   1.000000   0.000000   0.000000 )  
               a(2) = (   0.000000   1.000000   0.000000 )  
               a(3) = (   0.000000   0.000000   1.000000 )  

     reciprocal axes: (cart. coord. in units 2 pi/alat)
               b(1) = (  1.000000  0.000000  0.000000 )  
               b(2) = (  0.000000  1.000000  0.000000 )  
               b(3) = (  0.000000  0.000000  1.000000 )  


     PseudoPot. # 1 for Pd read from file:
     /work/e298/e298/benp/pp/Pd.pbe-n-kjpaw_psl.0.3.0.UPF
     MD5 check sum: 1d2b5f02a1678cf25477754a56fa5101
     Pseudo is Projector augmented-wave + core cor, Zval = 10.0
     Generated using "atomic" code by A. Dal Corso  v.5.0.2 svn rev. 9392
     Shape of augmentation charge: PSQ
     Using radial grid of 1235 points,  6 beta functions with: 
                l(1) =   0
                l(2) =   0
                l(3) =   1
                l(4) =   1
                l(5) =   2
                l(6) =   2
     Q(r) pseudized with 0 coefficients 


     atomic species   valence    mass     pseudopotential
        N             10.00   106.42000     Pd( 1.00)

     48 Sym. Ops., with inversion, found



   Cartesian axes

     site n.     atom                  positions (alat units)
         1           N   tau(   1) = (   0.0000000   0.0000000   0.0000000  )
         2           N   tau(   2) = (   0.1250000   0.1250000   0.0000000  )
         3           N   tau(   3) = (   0.1250000   0.0000000   0.1250000  )
         4           N   tau(   4) = (   0.0000000   0.1250000   0.1250000  )
         5           N   tau(   5) = (   0.2500000   0.0000000   0.0000000  )
         6           N   tau(   6) = (   0.2500000   0.1250000   0.1250000  )
         7           N   tau(   7) = (   0.3750000   0.1250000   0.0000000  )
         8           N   tau(   8) = (   0.3750000   0.0000000   0.1250000  )
         9           N   tau(   9) = (   0.0000000   0.0000000   0.2500000  )
        10           N   tau(  10) = (   0.1250000   0.1250000   0.2500000  )
        11           N   tau(  11) = (   0.1250000   0.0000000   0.3750000  )
        12           N   tau(  12) = (   0.0000000   0.1250000   0.3750000  )
        13           N   tau(  13) = (   0.0000000   0.0000000   0.5000000  )
        14           N   tau(  14) = (   0.1250000   0.1250000   0.5000000  )
        15           N   tau(  15) = (   0.1250000   0.0000000   0.6250000  )
        16           N   tau(  16) = (   0.0000000   0.1250000   0.6250000  )
        17           N   tau(  17) = (   0.0000000   0.0000000   0.7500000  )
        18           N   tau(  18) = (   0.1250000   0.1250000   0.7500000  )
        19           N   tau(  19) = (   0.1250000   0.0000000   0.8750000  )
        20           N   tau(  20) = (   0.0000000   0.1250000   0.8750000  )
        21           N   tau(  21) = (   0.0000000   0.2500000   0.0000000  )
        22           N   tau(  22) = (   0.1250000   0.3750000   0.0000000  )
        23           N   tau(  23) = (   0.1250000   0.2500000   0.1250000  )
        24           N   tau(  24) = (   0.0000000   0.3750000   0.1250000  )
        25           N   tau(  25) = (   0.0000000   0.2500000   0.2500000  )
        26           N   tau(  26) = (   0.1250000   0.3750000   0.2500000  )
        27           N   tau(  27) = (   0.1250000   0.2500000   0.3750000  )
        28           N   tau(  28) = (   0.0000000   0.3750000   0.3750000  )
        29           N   tau(  29) = (   0.0000000   0.2500000   0.5000000  )
        30           N   tau(  30) = (   0.1250000   0.3750000   0.5000000  )
        31           N   tau(  31) = (   0.1250000   0.2500000   0.6250000  )
        32           N   tau(  32) = (   0.0000000   0.3750000   0.6250000  )
        33           N   tau(  33) = (   0.0000000   0.2500000   0.7500000  )
        34           N   tau(  34) = (   0.1250000   0.3750000   0.7500000  )
        35           N   tau(  35) = (   0.1250000   0.2500000   0.8750000  )
        36           N   tau(  36) = (   0.0000000   0.3750000   0.8750000  )
        37           N   tau(  37) = (   0.0000000   0.5000000   0.0000000  )
        38           N   tau(  38) = (   0.1250000   0.6250000   0.0000000  )
        39           N   tau(  39) = (   0.1250000   0.5000000   0.1250000  )
        40           N   tau(  40) = (   0.0000000   0.6250000   0.1250000  )
        41           N   tau(  41) = (   0.0000000   0.5000000   0.2500000  )
        42           N   tau(  42) = (   0.1250000   0.6250000   0.2500000  )
        43           N   tau(  43) = (   0.1250000   0.5000000   0.3750000  )
        44           N   tau(  44) = (   0.0000000   0.6250000   0.3750000  )
        45           N   tau(  45) = (   0.0000000   0.5000000   0.5000000  )
        46           N   tau(  46) = (   0.1250000   0.6250000   0.5000000  )
        47           N   tau(  47) = (   0.1250000   0.5000000   0.6250000  )
        48           N   tau(  48) = (   0.0000000   0.6250000   0.6250000  )
        49           N   tau(  49) = (   0.0000000   0.5000000   0.7500000  )
        50           N   tau(  50) = (   0.1250000   0.6250000   0.7500000  )
        51           N   tau(  51) = (   0.1250000   0.5000000   0.8750000  )
        52           N   tau(  52) = (   0.0000000   0.6250000   0.8750000  )
        53           N   tau(  53) = (   0.0000000   0.7500000   0.0000000  )
        54           N   tau(  54) = (   0.1250000   0.8750000   0.0000000  )
        55           N   tau(  55) = (   0.1250000   0.7500000   0.1250000  )
        56           N   tau(  56) = (   0.0000000   0.8750000   0.1250000  )
        57           N   tau(  57) = (   0.0000000   0.7500000   0.2500000  )
        58           N   tau(  58) = (   0.1250000   0.8750000   0.2500000  )
        59           N   tau(  59) = (   0.1250000   0.7500000   0.3750000  )
        60           N   tau(  60) = (   0.0000000   0.8750000   0.3750000  )
        61           N   tau(  61) = (   0.0000000   0.7500000   0.5000000  )
        62           N   tau(  62) = (   0.1250000   0.8750000   0.5000000  )
        63           N   tau(  63) = (   0.1250000   0.7500000   0.6250000  )
        64           N   tau(  64) = (   0.0000000   0.8750000   0.6250000  )
        65           N   tau(  65) = (   0.0000000   0.7500000   0.7500000  )
        66           N   tau(  66) = (   0.1250000   0.8750000   0.7500000  )
        67           N   tau(  67) = (   0.1250000   0.7500000   0.8750000  )
        68           N   tau(  68) = (   0.0000000   0.8750000   0.8750000  )
        69           N   tau(  69) = (   0.2500000   0.0000000   0.2500000  )
        70           N   tau(  70) = (   0.3750000   0.1250000   0.2500000  )
        71           N   tau(  71) = (   0.3750000   0.0000000   0.3750000  )
        72           N   tau(  72) = (   0.2500000   0.1250000   0.3750000  )
        73           N   tau(  73) = (   0.2500000   0.0000000   0.5000000  )
        74           N   tau(  74) = (   0.3750000   0.1250000   0.5000000  )
        75           N   tau(  75) = (   0.3750000   0.0000000   0.6250000  )
        76           N   tau(  76) = (   0.2500000   0.1250000   0.6250000  )
        77           N   tau(  77) = (   0.2500000   0.0000000   0.7500000  )
        78           N   tau(  78) = (   0.3750000   0.1250000   0.7500000  )
        79           N   tau(  79) = (   0.3750000   0.0000000   0.8750000  )
        80           N   tau(  80) = (   0.2500000   0.1250000   0.8750000  )
        81           N   tau(  81) = (   0.2500000   0.2500000   0.0000000  )
        82           N   tau(  82) = (   0.3750000   0.3750000   0.0000000  )
        83           N   tau(  83) = (   0.3750000   0.2500000   0.1250000  )
        84           N   tau(  84) = (   0.2500000   0.3750000   0.1250000  )
        85           N   tau(  85) = (   0.2500000   0.2500000   0.2500000  )
        86           N   tau(  86) = (   0.3750000   0.3750000   0.2500000  )
        87           N   tau(  87) = (   0.3750000   0.2500000   0.3750000  )
        88           N   tau(  88) = (   0.2500000   0.3750000   0.3750000  )
        89           N   tau(  89) = (   0.2500000   0.2500000   0.5000000  )
        90           N   tau(  90) = (   0.3750000   0.3750000   0.5000000  )
        91           N   tau(  91) = (   0.3750000   0.2500000   0.6250000  )
        92           N   tau(  92) = (   0.2500000   0.3750000   0.6250000  )
        93           N   tau(  93) = (   0.2500000   0.2500000   0.7500000  )
        94           N   tau(  94) = (   0.3750000   0.3750000   0.7500000  )
        95           N   tau(  95) = (   0.3750000   0.2500000   0.8750000  )
        96           N   tau(  96) = (   0.2500000   0.3750000   0.8750000  )
        97           N   tau(  97) = (   0.2500000   0.5000000   0.0000000  )
        98           N   tau(  98) = (   0.3750000   0.6250000   0.0000000  )
        99           N   tau(  99) = (   0.3750000   0.5000000   0.1250000  )
       100           N   tau( 100) = (   0.2500000   0.6250000   0.1250000  )
       101           N   tau( 101) = (   0.2500000   0.5000000   0.2500000  )
       102           N   tau( 102) = (   0.3750000   0.6250000   0.2500000  )
       103           N   tau( 103) = (   0.3750000   0.5000000   0.3750000  )
       104           N   tau( 104) = (   0.2500000   0.6250000   0.3750000  )
       105           N   tau( 105) = (   0.2500000   0.5000000   0.5000000  )
       106           N   tau( 106) = (   0.3750000   0.6250000   0.5000000  )
       107           N   tau( 107) = (   0.3750000   0.5000000   0.6250000  )
       108           N   tau( 108) = (   0.2500000   0.6250000   0.6250000  )
       109           N   tau( 109) = (   0.2500000   0.5000000   0.7500000  )
       110           N   tau( 110) = (   0.3750000   0.6250000   0.7500000  )
       111           N   tau( 111) = (   0.3750000   0.5000000   0.8750000  )
       112           N   tau( 112) = (   0.2500000   0.6250000   0.8750000  )
       113           N   tau( 113) = (   0.2500000   0.7500000   0.0000000  )
       114           N   tau( 114) = (   0.3750000   0.8750000   0.0000000  )
       115           N   tau( 115) = (   0.3750000   0.7500000   0.1250000  )
       116           N   tau( 116) = (   0.2500000   0.8750000   0.1250000  )
       117           N   tau( 117) = (   0.2500000   0.7500000   0.2500000  )
       118           N   tau( 118) = (   0.3750000   0.8750000   0.2500000  )
       119           N   tau( 119) = (   0.3750000   0.7500000   0.3750000  )
       120           N   tau( 120) = (   0.2500000   0.8750000   0.3750000  )
       121           N   tau( 121) = (   0.2500000   0.7500000   0.5000000  )
       122           N   tau( 122) = (   0.3750000   0.8750000   0.5000000  )
       123           N   tau( 123) = (   0.3750000   0.7500000   0.6250000  )
       124           N   tau( 124) = (   0.2500000   0.8750000   0.6250000  )
       125           N   tau( 125) = (   0.2500000   0.7500000   0.7500000  )
       126           N   tau( 126) = (   0.3750000   0.8750000   0.7500000  )
       127           N   tau( 127) = (   0.3750000   0.7500000   0.8750000  )
       128           N   tau( 128) = (   0.2500000   0.8750000   0.8750000  )
       129           N   tau( 129) = (   0.5000000   0.0000000   0.0000000  )
       130           N   tau( 130) = (   0.6250000   0.1250000   0.0000000  )
       131           N   tau( 131) = (   0.6250000   0.0000000   0.1250000  )
       132           N   tau( 132) = (   0.5000000   0.1250000   0.1250000  )
       133           N   tau( 133) = (   0.5000000   0.0000000   0.2500000  )
       134           N   tau( 134) = (   0.6250000   0.1250000   0.2500000  )
       135           N   tau( 135) = (   0.6250000   0.0000000   0.3750000  )
       136           N   tau( 136) = (   0.5000000   0.1250000   0.3750000  )
       137           N   tau( 137) = (   0.5000000   0.0000000   0.5000000  )
       138           N   tau( 138) = (   0.6250000   0.1250000   0.5000000  )
       139           N   tau( 139) = (   0.6250000   0.0000000   0.6250000  )
       140           N   tau( 140) = (   0.5000000   0.1250000   0.6250000  )
       141           N   tau( 141) = (   0.5000000   0.0000000   0.7500000  )
       142           N   tau( 142) = (   0.6250000   0.1250000   0.7500000  )
       143           N   tau( 143) = (   0.6250000   0.0000000   0.8750000  )
       144           N   tau( 144) = (   0.5000000   0.1250000   0.8750000  )
       145           N   tau( 145) = (   0.5000000   0.2500000   0.0000000  )
       146           N   tau( 146) = (   0.6250000   0.3750000   0.0000000  )
       147           N   tau( 147) = (   0.6250000   0.2500000   0.1250000  )
       148           N   tau( 148) = (   0.5000000   0.3750000   0.1250000  )
       149           N   tau( 149) = (   0.5000000   0.2500000   0.2500000  )
       150           N   tau( 150) = (   0.6250000   0.3750000   0.2500000  )
       151           N   tau( 151) = (   0.6250000   0.2500000   0.3750000  )
       152           N   tau( 152) = (   0.5000000   0.3750000   0.3750000  )
       153           N   tau( 153) = (   0.5000000   0.2500000   0.5000000  )
       154           N   tau( 154) = (   0.6250000   0.3750000   0.5000000  )
       155           N   tau( 155) = (   0.6250000   0.2500000   0.6250000  )
       156           N   tau( 156) = (   0.5000000   0.3750000   0.6250000  )
       157           N   tau( 157) = (   0.5000000   0.2500000   0.7500000  )
       158           N   tau( 158) = (   0.6250000   0.3750000   0.7500000  )
       159           N   tau( 159) = (   0.6250000   0.2500000   0.8750000  )
       160           N   tau( 160) = (   0.5000000   0.3750000   0.8750000  )
       161           N   tau( 161) = (   0.5000000   0.5000000   0.0000000  )
       162           N   tau( 162) = (   0.6250000   0.6250000   0.0000000  )
       163           N   tau( 163) = (   0.6250000   0.5000000   0.1250000  )
       164           N   tau( 164) = (   0.5000000   0.6250000   0.1250000  )
       165           N   tau( 165) = (   0.5000000   0.5000000   0.2500000  )
       166           N   tau( 166) = (   0.6250000   0.6250000   0.2500000  )
       167           N   tau( 167) = (   0.6250000   0.5000000   0.3750000  )
       168           N   tau( 168) = (   0.5000000   0.6250000   0.3750000  )
       169           N   tau( 169) = (   0.5000000   0.5000000   0.5000000  )
       170           N   tau( 170) = (   0.6250000   0.6250000   0.5000000  )
       171           N   tau( 171) = (   0.6250000   0.5000000   0.6250000  )
       172           N   tau( 172) = (   0.5000000   0.6250000   0.6250000  )
       173           N   tau( 173) = (   0.5000000   0.5000000   0.7500000  )
       174           N   tau( 174) = (   0.6250000   0.6250000   0.7500000  )
       175           N   tau( 175) = (   0.6250000   0.5000000   0.8750000  )
       176           N   tau( 176) = (   0.5000000   0.6250000   0.8750000  )
       177           N   tau( 177) = (   0.5000000   0.7500000   0.0000000  )
       178           N   tau( 178) = (   0.6250000   0.8750000   0.0000000  )
       179           N   tau( 179) = (   0.6250000   0.7500000   0.1250000  )
       180           N   tau( 180) = (   0.5000000   0.8750000   0.1250000  )
       181           N   tau( 181) = (   0.5000000   0.7500000   0.2500000  )
       182           N   tau( 182) = (   0.6250000   0.8750000   0.2500000  )
       183           N   tau( 183) = (   0.6250000   0.7500000   0.3750000  )
       184           N   tau( 184) = (   0.5000000   0.8750000   0.3750000  )
       185           N   tau( 185) = (   0.5000000   0.7500000   0.5000000  )
       186           N   tau( 186) = (   0.6250000   0.8750000   0.5000000  )
       187           N   tau( 187) = (   0.6250000   0.7500000   0.6250000  )
       188           N   tau( 188) = (   0.5000000   0.8750000   0.6250000  )
       189           N   tau( 189) = (   0.5000000   0.7500000   0.7500000  )
       190           N   tau( 190) = (   0.6250000   0.8750000   0.7500000  )
       191           N   tau( 191) = (   0.6250000   0.7500000   0.8750000  )
       192           N   tau( 192) = (   0.5000000   0.8750000   0.8750000  )
       193           N   tau( 193) = (   0.7500000   0.0000000   0.0000000  )
       194           N   tau( 194) = (   0.8750000   0.1250000   0.0000000  )
       195           N   tau( 195) = (   0.8750000   0.0000000   0.1250000  )
       196           N   tau( 196) = (   0.7500000   0.1250000   0.1250000  )
       197           N   tau( 197) = (   0.7500000   0.0000000   0.2500000  )
       198           N   tau( 198) = (   0.8750000   0.1250000   0.2500000  )
       199           N   tau( 199) = (   0.8750000   0.0000000   0.3750000  )
       200           N   tau( 200) = (   0.7500000   0.1250000   0.3750000  )
       201           N   tau( 201) = (   0.7500000   0.0000000   0.5000000  )
       202           N   tau( 202) = (   0.8750000   0.1250000   0.5000000  )
       203           N   tau( 203) = (   0.8750000   0.0000000   0.6250000  )
       204           N   tau( 204) = (   0.7500000   0.1250000   0.6250000  )
       205           N   tau( 205) = (   0.7500000   0.0000000   0.7500000  )
       206           N   tau( 206) = (   0.8750000   0.1250000   0.7500000  )
       207           N   tau( 207) = (   0.8750000   0.0000000   0.8750000  )
       208           N   tau( 208) = (   0.7500000   0.1250000   0.8750000  )
       209           N   tau( 209) = (   0.7500000   0.2500000   0.0000000  )
       210           N   tau( 210) = (   0.8750000   0.3750000   0.0000000  )
       211           N   tau( 211) = (   0.8750000   0.2500000   0.1250000  )
       212           N   tau( 212) = (   0.7500000   0.3750000   0.1250000  )
       213           N   tau( 213) = (   0.7500000   0.2500000   0.2500000  )
       214           N   tau( 214) = (   0.8750000   0.3750000   0.2500000  )
       215           N   tau( 215) = (   0.8750000   0.2500000   0.3750000  )
       216           N   tau( 216) = (   0.7500000   0.3750000   0.3750000  )
       217           N   tau( 217) = (   0.7500000   0.2500000   0.5000000  )
       218           N   tau( 218) = (   0.8750000   0.3750000   0.5000000  )
       219           N   tau( 219) = (   0.8750000   0.2500000   0.6250000  )
       220           N   tau( 220) = (   0.7500000   0.3750000   0.6250000  )
       221           N   tau( 221) = (   0.7500000   0.2500000   0.7500000  )
       222           N   tau( 222) = (   0.8750000   0.3750000   0.7500000  )
       223           N   tau( 223) = (   0.8750000   0.2500000   0.8750000  )
       224           N   tau( 224) = (   0.7500000   0.3750000   0.8750000  )
       225           N   tau( 225) = (   0.7500000   0.5000000   0.0000000  )
       226           N   tau( 226) = (   0.8750000   0.6250000   0.0000000  )
       227           N   tau( 227) = (   0.8750000   0.5000000   0.1250000  )
       228           N   tau( 228) = (   0.7500000   0.6250000   0.1250000  )
       229           N   tau( 229) = (   0.7500000   0.5000000   0.2500000  )
       230           N   tau( 230) = (   0.8750000   0.6250000   0.2500000  )
       231           N   tau( 231) = (   0.8750000   0.5000000   0.3750000  )
       232           N   tau( 232) = (   0.7500000   0.6250000   0.3750000  )
       233           N   tau( 233) = (   0.7500000   0.5000000   0.5000000  )
       234           N   tau( 234) = (   0.8750000   0.6250000   0.5000000  )
       235           N   tau( 235) = (   0.8750000   0.5000000   0.6250000  )
       236           N   tau( 236) = (   0.7500000   0.6250000   0.6250000  )
       237           N   tau( 237) = (   0.7500000   0.5000000   0.7500000  )
       238           N   tau( 238) = (   0.8750000   0.6250000   0.7500000  )
       239           N   tau( 239) = (   0.8750000   0.5000000   0.8750000  )
       240           N   tau( 240) = (   0.7500000   0.6250000   0.8750000  )
       241           N   tau( 241) = (   0.7500000   0.7500000   0.0000000  )
       242           N   tau( 242) = (   0.8750000   0.8750000   0.0000000  )
       243           N   tau( 243) = (   0.8750000   0.7500000   0.1250000  )
       244           N   tau( 244) = (   0.7500000   0.8750000   0.1250000  )
       245           N   tau( 245) = (   0.7500000   0.7500000   0.2500000  )
       246           N   tau( 246) = (   0.8750000   0.8750000   0.2500000  )
       247           N   tau( 247) = (   0.8750000   0.7500000   0.3750000  )
       248           N   tau( 248) = (   0.7500000   0.8750000   0.3750000  )
       249           N   tau( 249) = (   0.7500000   0.7500000   0.5000000  )
       250           N   tau( 250) = (   0.8750000   0.8750000   0.5000000  )
       251           N   tau( 251) = (   0.8750000   0.7500000   0.6250000  )
       252           N   tau( 252) = (   0.7500000   0.8750000   0.6250000  )
       253           N   tau( 253) = (   0.7500000   0.7500000   0.7500000  )
       254           N   tau( 254) = (   0.8750000   0.8750000   0.7500000  )
       255           N   tau( 255) = (   0.8750000   0.7500000   0.8750000  )
       256           N   tau( 256) = (   0.7500000   0.8750000   0.8750000  )

     number of k points=     1  Marzari-Vanderbilt smearing, width (Ry)=  0.0500
                       cart. coord. in units 2pi/alat
        k(    1) = (   0.0000000   0.0000000   0.0000000), wk =   2.0000000

     Dense  grid:   789399 G-vectors     FFT dimensions: ( 150, 150, 150)

     Largest allocated arrays     est. size (Mb)     dimensions
        Kohn-Sham Wavefunctions        28.27 Mb     (   1206, 1536)
        NL pseudopotentials            84.80 Mb     (   1206, 4608)
        Each V/rho on FFT grid          0.69 Mb     (  45000)
        Each G-vector array             0.05 Mb     (   6166)
        G-vector shells                 0.05 Mb     (   6166)
     Largest temporary arrays     est. size (Mb)     dimensions
        Auxiliary wavefunctions        56.53 Mb     (   1206, 6144)
        Each subspace H/S matrix        4.50 Mb     ( 768, 768)
        Each <psi_i|beta_j> matrix     54.00 Mb     (   4608, 1536)
        Arrays for rho mixing           5.49 Mb     (  45000,   8)

     Initial potential from superposition of free atoms

     starting charge 2559.86623, renormalised to 2560.00000
     Starting wfc are 2304 randomized atomic wfcs
     Checking if some PAW data can be deallocated... 

     total cpu time spent up to now is       36.5 secs

     per-process dynamical memory:   224.9 Mb

     Self-consistent Calculation

     iteration #  1     ecut=    78.00 Ry     beta=0.70
     Davidson diagonalization with overlap
     ethr =  1.00E-02,  avg # of iterations = 13.0

     total cpu time spent up to now is      174.5 secs

     total energy              =  -84756.53133188 Ry
     Harris-Foulkes estimate   =  -84771.20678843 Ry
     estimated scf accuracy    <      31.04195018 Ry

     iteration #  2     ecut=    78.00 Ry     beta=0.70
     Davidson diagonalization with overlap
     ethr =  1.21E-03,  avg # of iterations =  5.0

     total cpu time spent up to now is      294.8 secs

     total energy              =  -84762.57722135 Ry
     Harris-Foulkes estimate   =  -84762.62913743 Ry
     estimated scf accuracy    <       1.13695817 Ry

     iteration #  3     ecut=    78.00 Ry     beta=0.70
     Davidson diagonalization with overlap
     ethr =  4.44E-05,  avg # of iterations = 12.0

     total cpu time spent up to now is      530.5 secs

     total energy              =  -84762.93213719 Ry
     Harris-Foulkes estimate   =  -84763.01232878 Ry
     estimated scf accuracy    <       3.34772462 Ry

     iteration #  4     ecut=    78.00 Ry     beta=0.70
     Davidson diagonalization with overlap
     ethr =  4.44E-05,  avg # of iterations =  1.0

     total cpu time spent up to now is      592.8 secs

     total energy              =  -84762.99766825 Ry
     Harris-Foulkes estimate   =  -84762.98887048 Ry
     estimated scf accuracy    <       0.20195819 Ry

     iteration #  5     ecut=    78.00 Ry     beta=0.70
     Davidson diagonalization with overlap
     ethr =  7.89E-06,  avg # of iterations =  1.0

     total cpu time spent up to now is      654.1 secs

     total energy              =  -84763.00371309 Ry
     Harris-Foulkes estimate   =  -84763.01772820 Ry
     estimated scf accuracy    <       0.22449139 Ry

     iteration #  6     ecut=    78.00 Ry     beta=0.70
     Davidson diagonalization with overlap
     ethr =  7.89E-06,  avg # of iterations =  1.0

     total cpu time spent up to now is      716.3 secs

     total energy              =  -84763.01002564 Ry
     Harris-Foulkes estimate   =  -84763.01306532 Ry
     estimated scf accuracy    <       0.02438074 Ry

     iteration #  7     ecut=    78.00 Ry     beta=0.70
     Davidson diagonalization with overlap
     ethr =  9.52E-07,  avg # of iterations =  1.0

     total cpu time spent up to now is      780.1 secs

     total energy              =  -84763.01085079 Ry
     Harris-Foulkes estimate   =  -84763.01210600 Ry
     estimated scf accuracy    <       0.01837746 Ry

     iteration #  8     ecut=    78.00 Ry     beta=0.70
     Davidson diagonalization with overlap
     ethr =  7.18E-07,  avg # of iterations =  1.0

     total cpu time spent up to now is      842.1 secs

     total energy              =  -84763.01144155 Ry
     Harris-Foulkes estimate   =  -84763.01163410 Ry
     estimated scf accuracy    <       0.01080717 Ry

     iteration #  9     ecut=    78.00 Ry     beta=0.70
     Davidson diagonalization with overlap
     ethr =  4.22E-07,  avg # of iterations =  1.0

     total cpu time spent up to now is      907.2 secs

     total energy              =  -84763.01149192 Ry
     Harris-Foulkes estimate   =  -84763.01163506 Ry
     estimated scf accuracy    <       0.00272399 Ry

     iteration # 10     ecut=    78.00 Ry     beta=0.70
     Davidson diagonalization with overlap
     ethr =  1.06E-07,  avg # of iterations =  2.0

     total cpu time spent up to now is      976.2 secs

     total energy              =  -84763.01166467 Ry
     Harris-Foulkes estimate   =  -84763.01202075 Ry
     estimated scf accuracy    <       0.00593408 Ry

     iteration # 11     ecut=    78.00 Ry     beta=0.70
     Davidson diagonalization with overlap
     ethr =  1.06E-07,  avg # of iterations =  1.0

     total cpu time spent up to now is     1038.6 secs

     total energy              =  -84763.01188007 Ry
     Harris-Foulkes estimate   =  -84763.01189347 Ry
     estimated scf accuracy    <       0.00032786 Ry

     iteration # 12     ecut=    78.00 Ry     beta=0.70
     Davidson diagonalization with overlap
     ethr =  1.28E-08,  avg # of iterations =  1.0

     total cpu time spent up to now is     1100.8 secs

     total energy              =  -84763.01188110 Ry
     Harris-Foulkes estimate   =  -84763.01189383 Ry
     estimated scf accuracy    <       0.00029590 Ry

     iteration # 13     ecut=    78.00 Ry     beta=0.70
     Davidson diagonalization with overlap
     ethr =  1.16E-08,  avg # of iterations =  1.0

     total cpu time spent up to now is     1163.1 secs

     total energy              =  -84763.01188359 Ry
     Harris-Foulkes estimate   =  -84763.01189696 Ry
     estimated scf accuracy    <       0.00038921 Ry

     iteration # 14     ecut=    78.00 Ry     beta=0.70
     Davidson diagonalization with overlap
     ethr =  1.16E-08,  avg # of iterations =  1.0

     total cpu time spent up to now is     1225.5 secs

     total energy              =  -84763.01189448 Ry
     Harris-Foulkes estimate   =  -84763.01189451 Ry
     estimated scf accuracy    <       0.00006440 Ry

     iteration # 15     ecut=    78.00 Ry     beta=0.70
     Davidson diagonalization with overlap
     ethr =  2.52E-09,  avg # of iterations =  1.0

     total cpu time spent up to now is     1290.2 secs

     total energy              =  -84763.01189663 Ry
     Harris-Foulkes estimate   =  -84763.01189883 Ry
     estimated scf accuracy    <       0.00007933 Ry

     iteration # 16     ecut=    78.00 Ry     beta=0.70
     Davidson diagonalization with overlap
     ethr =  2.52E-09,  avg # of iterations =  1.0

     total cpu time spent up to now is     1352.6 secs

     total energy              =  -84763.01189848 Ry
     Harris-Foulkes estimate   =  -84763.01189871 Ry
     estimated scf accuracy    <       0.00002861 Ry

     iteration # 17     ecut=    78.00 Ry     beta=0.70
     Davidson diagonalization with overlap
     ethr =  1.12E-09,  avg # of iterations =  1.0

     total cpu time spent up to now is     1414.3 secs

     total energy              =  -84763.01189878 Ry
     Harris-Foulkes estimate   =  -84763.01189912 Ry
     estimated scf accuracy    <       0.00000739 Ry

     iteration # 18     ecut=    78.00 Ry     beta=0.70
     Davidson diagonalization with overlap
     ethr =  2.89E-10,  avg # of iterations =  1.0

     total cpu time spent up to now is     1476.3 secs

     total energy              =  -84763.01189923 Ry
     Harris-Foulkes estimate   =  -84763.01189894 Ry
     estimated scf accuracy    <       0.00000130 Ry

     iteration # 19     ecut=    78.00 Ry     beta=0.70
     Davidson diagonalization with overlap
     ethr =  5.08E-11,  avg # of iterations =  3.0

     total cpu time spent up to now is     1547.3 secs

     total energy              =  -84763.01189902 Ry
     Harris-Foulkes estimate   =  -84763.01189945 Ry
     estimated scf accuracy    <       0.00000351 Ry

     iteration # 20     ecut=    78.00 Ry     beta=0.70
     Davidson diagonalization with overlap
     ethr =  5.08E-11,  avg # of iterations =  1.0

     total cpu time spent up to now is     1610.6 secs

     total energy              =  -84763.01189922 Ry
     Harris-Foulkes estimate   =  -84763.01189918 Ry
     estimated scf accuracy    <       0.00000053 Ry

     iteration # 21     ecut=    78.00 Ry     beta=0.70
     Davidson diagonalization with overlap
     ethr =  2.08E-11,  avg # of iterations =  1.0

     total cpu time spent up to now is     1673.7 secs

     total energy              =  -84763.01189922 Ry
     Harris-Foulkes estimate   =  -84763.01189925 Ry
     estimated scf accuracy    <       0.00000030 Ry

     iteration # 22     ecut=    78.00 Ry     beta=0.70
     Davidson diagonalization with overlap
     ethr =  1.17E-11,  avg # of iterations =  1.0

     total cpu time spent up to now is     1735.8 secs

     total energy              =  -84763.01189921 Ry
     Harris-Foulkes estimate   =  -84763.01189923 Ry
     estimated scf accuracy    <       0.00000013 Ry

     iteration # 23     ecut=    78.00 Ry     beta=0.70
     Davidson diagonalization with overlap
     ethr =  5.15E-12,  avg # of iterations =  1.0

     total cpu time spent up to now is     1797.7 secs

     End of self-consistent calculation

          k = 0.0000 0.0000 0.0000 (153994 PWs)   bands (ev):

     6.3633   7.0695   7.0695   7.0695   7.0695   7.0695   7.0695   7.6872
     7.6873   7.6873   7.6873   7.6873   7.6873   7.6873   7.6873   7.6873
     7.6873   7.6873   7.6873   8.0107   8.0107   8.0107   8.0107   8.0107
     8.0107   8.0107   8.0107   8.1338   8.1338   8.1338   8.2066   8.2066
     8.2066   8.2066   8.4048   8.4048   8.4048   8.4328   8.4328   8.4328
     8.4328   8.4328   8.4328   8.4996   8.4996   8.4996   8.4996   8.4996
     8.4996   8.5616   8.5616   8.5616   8.5616   8.5616   8.5616   8.5616
     8.5616   8.5616   8.5616   8.5616   8.5616   8.6149   8.6149   8.6149
     8.6149   8.6149   8.6149   8.6149   8.6149   8.6149   8.6149   8.6149
     8.6149   8.6149   8.6149   8.6149   8.6149   8.6149   8.6149   8.6149
     8.6149   8.6149   8.6149   8.6149   8.6149   8.6256   8.6256   8.6256
     8.6256   8.6256   8.6256   8.6256   8.6256   8.6256   8.6256   8.6256
     8.6256   8.6256   8.6256   8.6256   8.6256   8.6256   8.6256   8.6256
     8.6256   8.6256   8.6256   8.6256   8.6256   8.6760   8.6760   8.6760
     8.6760   8.6760   8.6760   8.7621   8.7621   8.7621   8.7621   8.7621
     8.7621   8.7621   8.7621   8.7621   8.7621   8.7621   8.7621   8.8177
     8.8177   8.8177   8.8177   8.8177   8.8177   8.8177   8.8177   8.8177
     8.8177   8.8177   8.8177   8.8607   8.8607   8.8607   8.8607   8.8607
     8.8607   8.8607   8.8607   8.8607   8.8607   8.8607   8.8607   8.8607
     8.8607   8.8607   8.8607   8.8607   8.8607   8.8607   8.8607   8.8607
     8.8607   8.8607   8.8607   8.8969   8.8969   8.8969   8.8969   8.8969
     8.8969   8.8969   8.8969   8.8969   8.8969   8.8969   8.8969   8.8969
     8.8969   8.8969   8.8969   8.8969   8.8969   8.8969   8.8969   8.8969
     8.8969   8.8969   8.8969   8.9792   8.9792   8.9792   8.9792   8.9792
     8.9792   8.9792   8.9792   8.9792   8.9792   8.9792   8.9792   8.9792
     8.9793   8.9793   8.9793   8.9793   8.9793   8.9793   8.9793   8.9793
     8.9793   8.9793   8.9793   9.0377   9.0377   9.0377   9.0377   9.0377
     9.0377   9.0377   9.0377   9.0377   9.0377   9.0377   9.0377   9.0377
     9.0377   9.0377   9.0377   9.0377   9.0377   9.0377   9.0377   9.0377
     9.0377   9.0377   9.0377   9.0969   9.0969   9.0969   9.0969   9.0969
     9.0970   9.0970   9.0970   9.0970   9.0970   9.0970   9.0970   9.0970
     9.0970   9.0970   9.0970   9.0970   9.0970   9.0970   9.0970   9.0970
     9.0970   9.0970   9.0970   9.1448   9.1448   9.1448   9.1448   9.1448
     9.1448   9.3018   9.3018   9.3019   9.3019   9.3019   9.3019   9.3019
     9.3019   9.3019   9.3019   9.3019   9.3019   9.3809   9.3809   9.3809
     9.3809   9.3809   9.3809   9.4817   9.4817   9.4817   9.4817   9.4817
     9.4817   9.4817   9.4817   9.4817   9.4817   9.4817   9.4817   9.4817
     9.4817   9.4817   9.4817   9.4817   9.4817   9.4817   9.4817   9.4817
     9.4817   9.4817   9.4817   9.5484   9.5484   9.5484   9.5484   9.5484
     9.5484   9.5484   9.5484   9.5484   9.5484   9.5484   9.5484   9.5893
     9.5893   9.5893   9.5893   9.5893   9.5893   9.5893   9.5893   9.5893
     9.5893   9.5893   9.5893   9.5893   9.5893   9.5893   9.5893   9.5893
     9.5893   9.5893   9.5893   9.5893   9.5893   9.5893   9.5893   9.6026
     9.6026   9.6026   9.6026   9.6026   9.6026   9.6026   9.6026   9.6026
     9.6026   9.6026   9.6026   9.6026   9.6026   9.6026   9.6026   9.6026
     9.6026   9.6026   9.6026   9.6026   9.6026   9.6026   9.6026   9.8076
     9.8076   9.8076   9.8076   9.8076   9.8076   9.8076   9.8076   9.8076
     9.8076   9.8076   9.8076   9.8076   9.8076   9.8076   9.8076   9.8076
     9.8076   9.8076   9.8076   9.8076   9.8076   9.8076   9.8076   9.8885
     9.8885   9.8885   9.8885   9.8885   9.8885   9.8885   9.8885   9.8885
     9.8885   9.8885   9.8885   9.8885   9.8885   9.8885   9.8885   9.8885
     9.8885   9.8885   9.8885   9.8885   9.8885   9.8885   9.8885   9.9637
     9.9637   9.9637   9.9637   9.9637   9.9637   9.9637   9.9637   9.9637
     9.9637   9.9637   9.9637  10.0300  10.0300  10.0300  10.0300  10.0300
    10.0300  10.0300  10.0300  10.0300  10.0300  10.0300  10.0300  10.0572
    10.0572  10.0572  10.0572  10.0572  10.0572  10.0572  10.0572  10.0572
    10.0572  10.0572  10.0572  10.0572  10.0572  10.0572  10.0572  10.0572
    10.0572  10.0572  10.0572  10.0572  10.0572  10.0572  10.0572  10.1072
    10.1072  10.1072  10.1072  10.1072  10.1072  10.1072  10.1072  10.1072
    10.1072  10.1072  10.1072  10.1744  10.1744  10.1744  10.1744  10.1744
    10.1744  10.3287  10.3287  10.3287  10.3287  10.3287  10.3287  10.3287
    10.3287  10.3287  10.3287  10.3287  10.3287  10.3287  10.3287  10.3287
    10.3287  10.3287  10.3287  10.3287  10.3287  10.3287  10.3287  10.3287
    10.3287  10.3395  10.3395  10.3395  10.3395  10.3395  10.3395  10.3395
    10.3395  10.3395  10.3395  10.3395  10.3395  10.4508  10.4508  10.4508
    10.4508  10.4508  10.4508  10.4508  10.4508  10.4508  10.4508  10.4508
    10.4508  10.4508  10.4508  10.4508  10.4508  10.4508  10.4508  10.4508
    10.4508  10.4508  10.4508  10.4508  10.4508  10.4938  10.4938  10.4938
    10.4938  10.4938  10.4938  10.4938  10.4938  10.5170  10.5170  10.5170
    10.5170  10.5170  10.5170  10.5170  10.5170  10.5363  10.5363  10.5363
    10.5890  10.5890  10.5890  10.5890  10.5890  10.5890  10.5890  10.5890
    10.5890  10.5890  10.5890  10.5890  10.5890  10.5890  10.5890  10.5890
    10.5890  10.5890  10.5890  10.5890  10.5890  10.5890  10.5890  10.5890
    10.6589  10.6589  10.6589  10.6589  10.6589  10.6589  10.6589  10.6589
    10.6589  10.6589  10.6589  10.6589  10.6589  10.6589  10.6589  10.6589
    10.6589  10.6589  10.6589  10.6589  10.6589  10.6589  10.6589  10.6590
    10.8142  10.8142  10.8142  10.8142  10.8142  10.8142  10.8142  10.8142
    10.8142  10.8142  10.8142  10.8142  10.8142  10.8142  10.8142  10.8142
    10.8169  10.8169  10.8169  10.8169  10.8169  10.8169  10.8169  10.8169
    10.8169  10.8169  10.8169  10.8169  10.8169  10.8169  10.8169  10.8169
    10.8169  10.8169  10.8169  10.8169  10.8169  10.8169  10.8169  10.8169
    10.8584  10.8584  10.8584  10.8584  10.8584  10.8584  10.8584  10.8584
    10.8584  10.8584  10.8584  10.8584  10.8839  10.8839  10.8839  10.8839
    10.8839  10.8839  10.8839  10.8839  10.8839  10.8839  10.8839  10.8839
    10.9217  10.9217  10.9217  10.9217  10.9217  10.9217  10.9217  10.9217
    10.9217  10.9217  10.9217  10.9217  10.9217  10.9217  10.9217  10.9217
    10.9217  10.9217  10.9217  10.9217  10.9217  10.9217  10.9217  10.9217
    10.9678  10.9678  10.9678  10.9678  10.9678  10.9678  10.9678  10.9678
    10.9678  10.9678  10.9678  10.9678  11.0015  11.0016  11.0016  11.0016
    11.0016  11.0016  11.0016  11.0016  11.0016  11.0016  11.0016  11.0016
    11.0016  11.0016  11.0016  11.0016  11.0016  11.0016  11.0016  11.0016
    11.0016  11.0016  11.0016  11.0016  11.0191  11.0191  11.0191  11.0191
    11.0191  11.0191  11.0191  11.0191  11.0191  11.0191  11.0191  11.0191
    11.0191  11.0191  11.0191  11.0191  11.0191  11.0191  11.0191  11.0191
    11.0191  11.0191  11.0191  11.0191  11.2007  11.2007  11.2007  11.2007
    11.2007  11.2007  11.2007  11.2007  11.2007  11.2007  11.2007  11.2007
    11.2007  11.2007  11.2007  11.2007  11.2007  11.2007  11.2007  11.2007
    11.2007  11.2007  11.2007  11.2007  11.3601  11.3601  11.3601  11.3601
    11.3601  11.3601  11.3601  11.3601  11.3601  11.3601  11.3601  11.3601
    11.3601  11.3601  11.3601  11.3601  11.3601  11.3601  11.3601  11.3601
    11.3601  11.3601  11.3601  11.3601  11.3625  11.3625  11.3625  11.3625
    11.3625  11.3625  11.3625  11.3625  11.3625  11.3625  11.3625  11.3625
    11.4435  11.4435  11.4435  11.4435  11.4435  11.4435  11.4435  11.4435
    11.4435  11.4435  11.4435  11.4435  11.5155  11.5155  11.5155  11.5155
    11.5155  11.5155  11.6349  11.6349  11.6349  11.6349  11.6349  11.6349
    11.6349  11.6349  11.6349  11.6349  11.6349  11.6349  11.6349  11.6349
    11.6349  11.6349  11.6349  11.6349  11.6349  11.6349  11.6349  11.6349
    11.6349  11.6349  11.6496  11.6496  11.6496  11.6496  11.6496  11.6496
    11.6496  11.6496  11.6496  11.6496  11.6496  11.6496  11.6907  11.6907
    11.6907  11.6907  11.6907  11.6907  11.7033  11.7033  11.7033  11.7033
    11.7033  11.7033  11.7033  11.7033  11.7033  11.7033  11.7033  11.7033
    11.7033  11.7034  11.7034  11.7034  11.7034  11.7034  11.7034  11.7034
    11.7034  11.7034  11.7034  11.7034  11.7498  11.7498  11.7498  11.7498
    11.7498  11.7498  11.7498  11.7498  11.7498  11.7498  11.7498  11.7498
    11.7503  11.7503  11.7503  11.7503  11.7503  11.7503  11.7503  11.7503
    11.7503  11.7503  11.7503  11.7503  11.7503  11.7503  11.7503  11.7503
    11.7503  11.7503  11.7503  11.7503  11.7503  11.7503  11.7503  11.7503
    11.9072  11.9072  11.9072  11.9072  11.9072  11.9072  11.9072  11.9072
    11.9072  11.9072  11.9072  11.9072  11.9072  11.9072  11.9072  11.9072
    11.9072  11.9072  11.9072  11.9072  11.9072  11.9072  11.9072  11.9072
    11.9113  11.9113  11.9113  11.9113  11.9113  11.9113  11.9113  11.9113
    11.9113  11.9113  11.9113  11.9113  11.9303  11.9303  11.9303  11.9303
    11.9303  11.9303  11.9303  11.9303  11.9304  11.9304  11.9304  11.9304
    11.9304  11.9304  11.9304  11.9304  11.9304  11.9304  11.9304  11.9304
    11.9304  11.9304  11.9304  11.9304  11.9748  11.9748  11.9748  11.9748
    11.9748  11.9748  12.0159  12.0159  12.0159  12.0159  12.0159  12.0159
    12.0159  12.0159  12.0159  12.0159  12.0159  12.0159  12.0471  12.0471
    12.1969  12.1969  12.1969  12.1969  12.1969  12.1969  12.1969  12.1969
    12.1969  12.1969  12.1969  12.1969  12.1969  12.1969  12.1969  12.1969
    12.1986  12.1986  12.1986  12.1986  12.1986  12.1986  12.3132  12.3132
    12.3132  12.3132  12.3132  12.3132  12.3132  12.3132  12.3132  12.3132
    12.3132  12.3132  12.3897  12.3897  12.3897  12.3897  12.3897  12.3897
    12.3897  12.3897  12.3897  12.3897  12.3897  12.3897  12.5774  12.5774
    12.5774  12.5774  12.5774  12.5774  12.6336  12.6336  12.6336  12.6336
    12.6336  12.6336  12.6336  12.6336  12.6336  12.6336  12.6336  12.6336
    12.6336  12.6336  12.6336  12.6336  12.6336  12.6336  12.6336  12.6336
    12.6336  12.6336  12.6336  12.6336  12.6451  12.6451  12.6451  12.6451
    12.6451  12.6451  12.6451  12.6451  12.6451  12.6451  12.6451  12.6451
    12.7470  12.7470  12.7470  12.7470  12.7470  12.7470  12.7470  12.7470
    12.7470  12.7470  12.7470  12.7470  12.7470  12.7470  12.7470  12.7470
    12.7470  12.7470  12.7470  12.7470  12.7470  12.7470  12.7470  12.7470
    12.8752  12.8752  12.8752  12.8752  12.8752  12.8752  12.8752  12.8752
    12.8752  12.8752  12.8752  12.8752  12.8752  12.8752  12.8752  12.8752
    12.8752  12.8752  12.8752  12.8752  12.8752  12.8752  12.8752  12.8752
    12.8762  12.8762  12.8762  12.8762  12.8762  12.8762  12.8762  12.8762
    12.8762  12.8762  12.8762  12.8762  12.8762  12.8762  12.8762  12.8762
    12.8762  12.8762  12.8762  12.8762  12.8762  12.8762  12.8762  12.8762
    12.8844  12.8844  12.8844  12.8844  12.8844  12.8844  12.8844  12.8844
    12.8844  12.8844  12.8844  12.8844  12.9623  12.9623  12.9623  12.9623
    12.9623  12.9623  12.9623  12.9623  12.9623  12.9623  12.9623  12.9623
    12.9623  12.9623  12.9623  12.9623  12.9623  12.9623  12.9623  12.9623
    12.9623  12.9623  12.9623  12.9623  12.9767  12.9767  12.9767  12.9767
    12.9767  12.9767  13.0536  13.0536  13.0536  13.0536  13.0536  13.0536
    13.0536  13.0536  13.0536  13.0536  13.0536  13.0536  13.0550  13.0550
    13.0550  13.0550  13.0550  13.0550  13.0550  13.0550  13.0550  13.0550
    13.0550  13.0550  13.0550  13.0550  13.0550  13.0550  13.0550  13.0550
    13.0550  13.0550  13.0550  13.0550  13.0550  13.0550  13.1488  13.1488
    13.1488  13.1771  13.1771  13.1771  13.1771  13.1771  13.1771  13.1771
    13.1771  13.2610  13.2610  13.2610  13.2610  13.2610  13.2610  13.2610
    13.2610  13.2610  13.2610  13.2610  13.2610  13.2610  13.2610  13.2610
    13.2610  13.2610  13.2610  13.2610  13.2610  13.2610  13.2610  13.2610
    13.2610  13.4190  13.4190  13.4190  13.4190  13.4190  13.4190  13.4190
    13.4190  13.4190  13.4190  13.4190  13.4190  13.4190  13.4190  13.4190
    13.4190  13.4190  13.4190  13.4190  13.4190  13.4190  13.4190  13.4190
    13.4190  13.4726  13.4726  13.4726  13.4726  13.4726  13.4726  13.4735
    13.4735  13.4735  13.4735  13.4735  13.4735  13.4735  13.4735  13.4735
    13.4735  13.4735  13.4735  13.4745  13.4745  13.4745  13.4745  13.4745
    13.4745  13.4810  13.4810  13.4810  13.4810  13.4810  13.4810  13.4810
    13.4810  13.4810  13.4810  13.4810  13.4810  13.4810  13.4810  13.4810
    13.4810  13.4810  13.4810  13.4810  13.4810  13.4810  13.4810  13.4810
    13.4810  14.0502  14.0502  14.0502  14.0502  14.0502  14.0502  14.3228
    14.3228  14.3228  14.3228  15.1771  15.1771  15.1771  15.1771  15.1771
    15.1771  15.1771  15.1771  15.1771  15.1771  15.1771  15.1771  15.1771
    15.1771  15.1771  15.1771  15.1771  15.1771  15.1771  15.1771  15.1771
    15.1771  15.1771  15.1771  15.4517  15.4517  15.4517  15.4517  15.4517
    15.4517  15.4517  15.4517  15.4517  15.4517  15.4517  15.4517  15.9751
    15.9751  15.9751  15.9751  15.9751  15.9751  15.9751  15.9751  15.9751
    15.9751  15.9751  15.9751  15.9751  15.9751  15.9751  15.9751  15.9751
    15.9751  15.9751  15.9751  15.9751  15.9751  15.9752  15.9752  16.5995
    16.5995  16.5995  16.8274  16.8274  16.8274  16.8274  16.8274  16.8274
    16.8274  16.8274  16.8274  16.8274  16.8274  16.8274  16.8274  16.8274
    16.8274  16.8274  16.8274  16.8274  16.8274  16.8274  16.8274  16.8274
    16.8274  16.8274  17.9752  17.9752  17.9752  17.9752  17.9752  17.9752
    17.9752  17.9752  17.9752  17.9752  17.9752  17.9752  17.9752  17.9752
    17.9752  17.9752  17.9752  17.9752  17.9752  17.9752  17.9752  17.9752
    17.9752  17.9752  18.4160  18.4160  18.4160  18.4160  18.4160  18.4160
    18.4160  18.4160  18.4160  18.4160  18.4160  18.4160  18.4160  18.4160
    18.4160  18.4160  18.4160  18.4160  18.4160  18.4160  18.4160  18.4160
    18.4160  18.4160  18.6660  18.6660  18.6660  18.6660  18.6660  18.6660
    18.6660  18.6660  18.6660  18.6660  18.6660  18.6660  20.1686  20.1687
    20.1687  20.1687  20.2469  20.2470  20.2470  20.2470  20.3630  20.3641
    20.3642  20.3643  20.3643  20.3643  20.3643  20.3643  20.3643  20.3643

     the Fermi energy is    13.3446 ev

!    total energy              =  -84763.01189910 Ry
     Harris-Foulkes estimate   =  -84763.01189921 Ry
     estimated scf accuracy    <       0.00000010 Ry

     total all-electron energy =  -2583566.017649 Ry

     The total energy is the sum of the following terms:

     one-electron contribution =    2607.78847645 Ry
     hartree contribution      =    2404.46544847 Ry
     xc contribution           =   -8298.62612655 Ry
     ewald contribution        =  -15754.69383857 Ry
     one-center paw contrib.   =  -65722.12551280 Ry
     smearing contrib. (-TS)   =       0.17965390 Ry

     convergence has been achieved in  23 iterations

     Forces acting on atoms (Ry/au):

     atom    1 type  1   force =     0.00000000    0.00000000    0.00000000
     atom    2 type  1   force =     0.00001933    0.00001933   -0.00000000
     atom    3 type  1   force =     0.00001933    0.00000000    0.00001933
     atom    4 type  1   force =     0.00000000    0.00001933    0.00001933
     atom    5 type  1   force =     0.00000809    0.00000000   -0.00000000
     atom    6 type  1   force =     0.00001043    0.00002218    0.00002218
     atom    7 type  1   force =    -0.00000685    0.00002340   -0.00000000
     atom    8 type  1   force =    -0.00000685   -0.00000000    0.00002340
     atom    9 type  1   force =     0.00000000    0.00000000    0.00000809
     atom   10 type  1   force =     0.00002218    0.00002218    0.00001043
     atom   11 type  1   force =     0.00002340    0.00000000   -0.00000685
     atom   12 type  1   force =     0.00000000    0.00002340   -0.00000685
     atom   13 type  1   force =     0.00000000    0.00000000    0.00000000
     atom   14 type  1   force =     0.00002468    0.00002468    0.00000000
     atom   15 type  1   force =     0.00002340    0.00000000    0.00000685
     atom   16 type  1   force =     0.00000000    0.00002340    0.00000685
     atom   17 type  1   force =     0.00000000    0.00000000   -0.00000809
     atom   18 type  1   force =     0.00002218    0.00002218   -0.00001043
     atom   19 type  1   force =     0.00001933    0.00000000   -0.00001933
     atom   20 type  1   force =     0.00000000    0.00001933   -0.00001933
     atom   21 type  1   force =     0.00000000    0.00000809    0.00000000
     atom   22 type  1   force =     0.00002340   -0.00000685   -0.00000000
     atom   23 type  1   force =     0.00002218    0.00001043    0.00002218
     atom   24 type  1   force =    -0.00000000   -0.00000685    0.00002340
     atom   25 type  1   force =     0.00000000    0.00001217    0.00001217
     atom   26 type  1   force =     0.00002621   -0.00000329    0.00001907
     atom   27 type  1   force =     0.00002621    0.00001907   -0.00000329
     atom   28 type  1   force =     0.00000000    0.00000312    0.00000312
     atom   29 type  1   force =    -0.00000000    0.00002105    0.00000000
     atom   30 type  1   force =     0.00002744    0.00000760   -0.00000000
     atom   31 type  1   force =     0.00002621    0.00001907    0.00000329
     atom   32 type  1   force =    -0.00000000    0.00000312   -0.00000312
     atom   33 type  1   force =     0.00000000    0.00001217   -0.00001217
     atom   34 type  1   force =     0.00002621   -0.00000329   -0.00001907
     atom   35 type  1   force =     0.00002218    0.00001043   -0.00002218
     atom   36 type  1   force =     0.00000000   -0.00000685   -0.00002340
     atom   37 type  1   force =     0.00000000    0.00000000    0.00000000
     atom   38 type  1   force =     0.00002340    0.00000685    0.00000000
     atom   39 type  1   force =     0.00002468    0.00000000    0.00002468
     atom   40 type  1   force =    -0.00000000    0.00000685    0.00002340
     atom   41 type  1   force =     0.00000000    0.00000000    0.00002105
     atom   42 type  1   force =     0.00002621    0.00000329    0.00001907
     atom   43 type  1   force =     0.00002744    0.00000000    0.00000760
     atom   44 type  1   force =     0.00000000   -0.00000312    0.00000312
     atom   45 type  1   force =     0.00000000    0.00000000    0.00000000
     atom   46 type  1   force =     0.00002744   -0.00000760   -0.00000000
     atom   47 type  1   force =     0.00002744    0.00000000   -0.00000760
     atom   48 type  1   force =     0.00000000   -0.00000312   -0.00000312
     atom   49 type  1   force =     0.00000000    0.00000000   -0.00002105
     atom   50 type  1   force =     0.00002621    0.00000329   -0.00001907
     atom   51 type  1   force =     0.00002468    0.00000000   -0.00002468
     atom   52 type  1   force =     0.00000000    0.00000685   -0.00002340
     atom   53 type  1   force =     0.00000000   -0.00000809    0.00000000
     atom   54 type  1   force =     0.00001933   -0.00001933    0.00000000
     atom   55 type  1   force =     0.00002218   -0.00001043    0.00002218
     atom   56 type  1   force =    -0.00000000   -0.00001933    0.00001933
     atom   57 type  1   force =     0.00000000   -0.00001217    0.00001217
     atom   58 type  1   force =     0.00002218   -0.00002218    0.00001043
     atom   59 type  1   force =     0.00002621   -0.00001907   -0.00000329
     atom   60 type  1   force =     0.00000000   -0.00002340   -0.00000685
     atom   61 type  1   force =     0.00000000   -0.00002105    0.00000000
     atom   62 type  1   force =     0.00002468   -0.00002468    0.00000000
     atom   63 type  1   force =     0.00002621   -0.00001907    0.00000329
     atom   64 type  1   force =     0.00000000   -0.00002340    0.00000685
     atom   65 type  1   force =     0.00000000   -0.00001217   -0.00001217
     atom   66 type  1   force =     0.00002218   -0.00002218   -0.00001043
     atom   67 type  1   force =     0.00002218   -0.00001043   -0.00002218
     atom   68 type  1   force =    -0.00000000   -0.00001933   -0.00001933
     atom   69 type  1   force =     0.00001217    0.00000000    0.00001217
     atom   70 type  1   force =    -0.00000329    0.00002621    0.00001907
     atom   71 type  1   force =     0.00000312    0.00000000    0.00000312
     atom   72 type  1   force =     0.00001907    0.00002621   -0.00000329
     atom   73 type  1   force =     0.00002105    0.00000000    0.00000000
     atom   74 type  1   force =     0.00000760    0.00002744    0.00000000
     atom   75 type  1   force =     0.00000312   -0.00000000   -0.00000312
     atom   76 type  1   force =     0.00001907    0.00002621    0.00000329
     atom   77 type  1   force =     0.00001217    0.00000000   -0.00001217
     atom   78 type  1   force =    -0.00000329    0.00002621   -0.00001907
     atom   79 type  1   force =    -0.00000685   -0.00000000   -0.00002340
     atom   80 type  1   force =     0.00001043    0.00002218   -0.00002218
     atom   81 type  1   force =     0.00001217    0.00001217    0.00000000
     atom   82 type  1   force =     0.00000312    0.00000312   -0.00000000
     atom   83 type  1   force =    -0.00000329    0.00001907    0.00002621
     atom   84 type  1   force =     0.00001907   -0.00000329    0.00002621
     atom   85 type  1   force =     0.00001686    0.00001686    0.00001686
     atom   86 type  1   force =     0.00000291    0.00000291    0.00001883
     atom   87 type  1   force =     0.00000291    0.00001883    0.00000291
     atom   88 type  1   force =     0.00001883    0.00000291    0.00000291
     atom   89 type  1   force =     0.00002175    0.00002175    0.00000000
     atom   90 type  1   force =    -0.00000028   -0.00000028   -0.00000000
     atom   91 type  1   force =     0.00000291    0.00001883   -0.00000291
     atom   92 type  1   force =     0.00001883    0.00000291   -0.00000291
     atom   93 type  1   force =     0.00001686    0.00001686   -0.00001686
     atom   94 type  1   force =     0.00000291    0.00000291   -0.00001883
     atom   95 type  1   force =    -0.00000329    0.00001907   -0.00002621
     atom   96 type  1   force =     0.00001907   -0.00000329   -0.00002621
     atom   97 type  1   force =     0.00002105    0.00000000   -0.00000000
     atom   98 type  1   force =     0.00000312   -0.00000312    0.00000000
     atom   99 type  1   force =     0.00000760    0.00000000    0.00002744
     atom  100 type  1   force =     0.00001907    0.00000329    0.00002621
     atom  101 type  1   force =     0.00002175    0.00000000    0.00002175
     atom  102 type  1   force =     0.00000291   -0.00000291    0.00001883
     atom  103 type  1   force =    -0.00000028    0.00000000   -0.00000028
     atom  104 type  1   force =     0.00001883   -0.00000291    0.00000291
     atom  105 type  1   force =     0.00001612    0.00000000    0.00000000
     atom  106 type  1   force =    -0.00000028    0.00000028   -0.00000000
     atom  107 type  1   force =    -0.00000028    0.00000000    0.00000028
     atom  108 type  1   force =     0.00001883   -0.00000291   -0.00000291
     atom  109 type  1   force =     0.00002175    0.00000000   -0.00002175
     atom  110 type  1   force =     0.00000291   -0.00000291   -0.00001883
     atom  111 type  1   force =     0.00000760    0.00000000   -0.00002744
     atom  112 type  1   force =     0.00001907    0.00000329   -0.00002621
     atom  113 type  1   force =     0.00001217   -0.00001217    0.00000000
     atom  114 type  1   force =    -0.00000685   -0.00002340    0.00000000
     atom  115 type  1   force =    -0.00000329   -0.00001907    0.00002621
     atom  116 type  1   force =     0.00001043   -0.00002218    0.00002218
     atom  117 type  1   force =     0.00001686   -0.00001686    0.00001686
     atom  118 type  1   force =    -0.00000329   -0.00002621    0.00001907
     atom  119 type  1   force =     0.00000291   -0.00001883    0.00000291
     atom  120 type  1   force =     0.00001907   -0.00002621   -0.00000329
     atom  121 type  1   force =     0.00002175   -0.00002175    0.00000000
     atom  122 type  1   force =     0.00000760   -0.00002744   -0.00000000
     atom  123 type  1   force =     0.00000291   -0.00001883   -0.00000291
     atom  124 type  1   force =     0.00001907   -0.00002621    0.00000329
     atom  125 type  1   force =     0.00001686   -0.00001686   -0.00001686
     atom  126 type  1   force =    -0.00000329   -0.00002621   -0.00001907
     atom  127 type  1   force =    -0.00000329   -0.00001907   -0.00002621
     atom  128 type  1   force =     0.00001043   -0.00002218   -0.00002218
     atom  129 type  1   force =     0.00000000    0.00000000    0.00000000
     atom  130 type  1   force =     0.00000685    0.00002340    0.00000000
     atom  131 type  1   force =     0.00000685   -0.00000000    0.00002340
     atom  132 type  1   force =     0.00000000    0.00002468    0.00002468
     atom  133 type  1   force =     0.00000000    0.00000000    0.00002105
     atom  134 type  1   force =     0.00000329    0.00002621    0.00001907
     atom  135 type  1   force =    -0.00000312    0.00000000    0.00000312
     atom  136 type  1   force =     0.00000000    0.00002744    0.00000760
     atom  137 type  1   force =     0.00000000    0.00000000    0.00000000
     atom  138 type  1   force =    -0.00000760    0.00002744   -0.00000000
     atom  139 type  1   force =    -0.00000312   -0.00000000   -0.00000312
     atom  140 type  1   force =     0.00000000    0.00002744   -0.00000760
     atom  141 type  1   force =     0.00000000    0.00000000   -0.00002105
     atom  142 type  1   force =     0.00000329    0.00002621   -0.00001907
     atom  143 type  1   force =     0.00000685   -0.00000000   -0.00002340
     atom  144 type  1   force =     0.00000000    0.00002468   -0.00002468
     atom  145 type  1   force =     0.00000000    0.00002105    0.00000000
     atom  146 type  1   force =    -0.00000312    0.00000312    0.00000000
     atom  147 type  1   force =     0.00000329    0.00001907    0.00002621
     atom  148 type  1   force =     0.00000000    0.00000760    0.00002744
     atom  149 type  1   force =     0.00000000    0.00002175    0.00002175
     atom  150 type  1   force =    -0.00000291    0.00000291    0.00001883
     atom  151 type  1   force =    -0.00000291    0.00001883    0.00000291
     atom  152 type  1   force =     0.00000000   -0.00000028   -0.00000028
     atom  153 type  1   force =     0.00000000    0.00001612    0.00000000
     atom  154 type  1   force =     0.00000028   -0.00000028    0.00000000
     atom  155 type  1   force =    -0.00000291    0.00001883   -0.00000291
     atom  156 type  1   force =     0.00000000   -0.00000028    0.00000028
     atom  157 type  1   force =    -0.00000000    0.00002175   -0.00002175
     atom  158 type  1   force =    -0.00000291    0.00000291   -0.00001883
     atom  159 type  1   force =     0.00000329    0.00001907   -0.00002621
     atom  160 type  1   force =     0.00000000    0.00000760   -0.00002744
     atom  161 type  1   force =     0.00000000    0.00000000    0.00000000
     atom  162 type  1   force =    -0.00000312   -0.00000312    0.00000000
     atom  163 type  1   force =    -0.00000760    0.00000000    0.00002744
     atom  164 type  1   force =     0.00000000   -0.00000760    0.00002744
     atom  165 type  1   force =     0.00000000    0.00000000    0.00001612
     atom  166 type  1   force =    -0.00000291   -0.00000291    0.00001883
     atom  167 type  1   force =     0.00000028    0.00000000   -0.00000028
     atom  168 type  1   force =    -0.00000000    0.00000028   -0.00000028
     atom  169 type  1   force =     0.00000000    0.00000000    0.00000000
     atom  170 type  1   force =     0.00000028    0.00000028   -0.00000000
     atom  171 type  1   force =     0.00000028    0.00000000    0.00000028
     atom  172 type  1   force =     0.00000000    0.00000028    0.00000028
     atom  173 type  1   force =     0.00000000    0.00000000   -0.00001612
     atom  174 type  1   force =    -0.00000291   -0.00000291   -0.00001883
     atom  175 type  1   force =    -0.00000760   -0.00000000   -0.00002744
     atom  176 type  1   force =    -0.00000000   -0.00000760   -0.00002744
     atom  177 type  1   force =     0.00000000   -0.00002105    0.00000000
     atom  178 type  1   force =     0.00000685   -0.00002340   -0.00000000
     atom  179 type  1   force =     0.00000329   -0.00001907    0.00002621
     atom  180 type  1   force =     0.00000000   -0.00002468    0.00002468
     atom  181 type  1   force =     0.00000000   -0.00002175    0.00002175
     atom  182 type  1   force =     0.00000329   -0.00002621    0.00001907
     atom  183 type  1   force =    -0.00000291   -0.00001883    0.00000291
     atom  184 type  1   force =    -0.00000000   -0.00002744    0.00000760
     atom  185 type  1   force =     0.00000000   -0.00001612   -0.00000000
     atom  186 type  1   force =    -0.00000760   -0.00002744   -0.00000000
     atom  187 type  1   force =    -0.00000291   -0.00001883   -0.00000291
     atom  188 type  1   force =     0.00000000   -0.00002744   -0.00000760
     atom  189 type  1   force =     0.00000000   -0.00002175   -0.00002175
     atom  190 type  1   force =     0.00000329   -0.00002621   -0.00001907
     atom  191 type  1   force =     0.00000329   -0.00001907   -0.00002621
     atom  192 type  1   force =     0.00000000   -0.00002468   -0.00002468
     atom  193 type  1   force =    -0.00000809    0.00000000    0.00000000
     atom  194 type  1   force =    -0.00001933    0.00001933   -0.00000000
     atom  195 type  1   force =    -0.00001933    0.00000000    0.00001933
     atom  196 type  1   force =    -0.00001043    0.00002218    0.00002218
     atom  197 type  1   force =    -0.00001217    0.00000000    0.00001217
     atom  198 type  1   force =    -0.00002218    0.00002218    0.00001043
     atom  199 type  1   force =    -0.00002340    0.00000000   -0.00000685
     atom  200 type  1   force =    -0.00001907    0.00002621   -0.00000329
     atom  201 type  1   force =    -0.00002105    0.00000000    0.00000000
     atom  202 type  1   force =    -0.00002468    0.00002468    0.00000000
     atom  203 type  1   force =    -0.00002340    0.00000000    0.00000685
     atom  204 type  1   force =    -0.00001907    0.00002621    0.00000329
     atom  205 type  1   force =    -0.00001217    0.00000000   -0.00001217
     atom  206 type  1   force =    -0.00002218    0.00002218   -0.00001043
     atom  207 type  1   force =    -0.00001933    0.00000000   -0.00001933
     atom  208 type  1   force =    -0.00001043    0.00002218   -0.00002218
     atom  209 type  1   force =    -0.00001217    0.00001217    0.00000000
     atom  210 type  1   force =    -0.00002340   -0.00000685    0.00000000
     atom  211 type  1   force =    -0.00002218    0.00001043    0.00002218
     atom  212 type  1   force =    -0.00001907   -0.00000329    0.00002621
     atom  213 type  1   force =    -0.00001686    0.00001686    0.00001686
     atom  214 type  1   force =    -0.00002621   -0.00000329    0.00001907
     atom  215 type  1   force =    -0.00002621    0.00001907   -0.00000329
     atom  216 type  1   force =    -0.00001883    0.00000291    0.00000291
     atom  217 type  1   force =    -0.00002175    0.00002175   -0.00000000
     atom  218 type  1   force =    -0.00002744    0.00000760    0.00000000
     atom  219 type  1   force =    -0.00002621    0.00001907    0.00000329
     atom  220 type  1   force =    -0.00001883    0.00000291   -0.00000291
     atom  221 type  1   force =    -0.00001686    0.00001686   -0.00001686
     atom  222 type  1   force =    -0.00002621   -0.00000329   -0.00001907
     atom  223 type  1   force =    -0.00002218    0.00001043   -0.00002218
     atom  224 type  1   force =    -0.00001907   -0.00000329   -0.00002621
     atom  225 type  1   force =    -0.00002105    0.00000000    0.00000000
     atom  226 type  1   force =    -0.00002340    0.00000685    0.00000000
     atom  227 type  1   force =    -0.00002468    0.00000000    0.00002468
     atom  228 type  1   force =    -0.00001907    0.00000329    0.00002621
     atom  229 type  1   force =    -0.00002175    0.00000000    0.00002175
     atom  230 type  1   force =    -0.00002621    0.00000329    0.00001907
     atom  231 type  1   force =    -0.00002744    0.00000000    0.00000760
     atom  232 type  1   force =    -0.00001883   -0.00000291    0.00000291
     atom  233 type  1   force =    -0.00001612    0.00000000    0.00000000
     atom  234 type  1   force =    -0.00002744   -0.00000760    0.00000000
     atom  235 type  1   force =    -0.00002744    0.00000000   -0.00000760
     atom  236 type  1   force =    -0.00001883   -0.00000291   -0.00000291
     atom  237 type  1   force =    -0.00002175    0.00000000   -0.00002175
     atom  238 type  1   force =    -0.00002621    0.00000329   -0.00001907
     atom  239 type  1   force =    -0.00002468   -0.00000000   -0.00002468
     atom  240 type  1   force =    -0.00001907    0.00000329   -0.00002621
     atom  241 type  1   force =    -0.00001217   -0.00001217    0.00000000
     atom  242 type  1   force =    -0.00001933   -0.00001933   -0.00000000
     atom  243 type  1   force =    -0.00002218   -0.00001043    0.00002218
     atom  244 type  1   force =    -0.00001043   -0.00002218    0.00002218
     atom  245 type  1   force =    -0.00001686   -0.00001686    0.00001686
     atom  246 type  1   force =    -0.00002218   -0.00002218    0.00001043
     atom  247 type  1   force =    -0.00002621   -0.00001907   -0.00000329
     atom  248 type  1   force =    -0.00001907   -0.00002621   -0.00000329
     atom  249 type  1   force =    -0.00002175   -0.00002175   -0.00000000
     atom  250 type  1   force =    -0.00002468   -0.00002468   -0.00000000
     atom  251 type  1   force =    -0.00002621   -0.00001907    0.00000329
     atom  252 type  1   force =    -0.00001907   -0.00002621    0.00000329
     atom  253 type  1   force =    -0.00001686   -0.00001686   -0.00001686
     atom  254 type  1   force =    -0.00002218   -0.00002218   -0.00001043
     atom  255 type  1   force =    -0.00002218   -0.00001043   -0.00002218
     atom  256 type  1   force =    -0.00001043   -0.00002218   -0.00002218

     Total force =     0.000000     Total SCF correction =     0.000000


     entering subroutine stress ...

          total   stress  (Ry/bohr**3)                   (kbar)     P=   14.34
   0.00009751   0.00000000   0.00000000         14.34      0.00      0.00
   0.00000000   0.00009751   0.00000000          0.00     14.34      0.00
   0.00000000   0.00000000   0.00009751          0.00      0.00     14.34


     BFGS Geometry Optimization

     number of scf cycles    =   1
     number of bfgs steps    =   0

     enthalpy new            =  -84763.0118991045 Ry

     new trust radius        =       0.0793141812 bohr
     new conv_thr            =       0.0000001000 Ry

     new unit-cell volume =  26657.60230 a.u.^3 (  3950.24905 Ang^3 )

CELL_PARAMETERS (alat= 29.80000000)
   1.002437791   0.000000000   0.000000000
   0.000000000   1.002437791   0.000000000
   0.000000000   0.000000000   1.002437791

ATOMIC_POSITIONS (crystal)
N        0.000000000   0.000000000   0.000000000    0   0   0
N        0.125000000   0.125000000   0.000000000    0   0   0
N        0.125000000   0.000000000   0.125000000    0   0   0
N        0.000000000   0.125000000   0.125000000    0   0   0
N        0.250000000   0.000000000   0.000000000    0   0   0
N        0.250000000   0.125000000   0.125000000    0   0   0
N        0.375000000   0.125000000   0.000000000    0   0   0
N        0.375000000   0.000000000   0.125000000    0   0   0
N        0.000000000   0.000000000   0.250000000    0   0   0
N        0.125000000   0.125000000   0.250000000    0   0   0
N        0.125000000   0.000000000   0.375000000    0   0   0
N        0.000000000   0.125000000   0.375000000    0   0   0
N        0.000000000   0.000000000   0.500000000    0   0   0
N        0.125000000   0.125000000   0.500000000    0   0   0
N        0.125000000   0.000000000   0.625000000    0   0   0
N        0.000000000   0.125000000   0.625000000    0   0   0
N        0.000000000   0.000000000   0.750000000    0   0   0
N        0.125000000   0.125000000   0.750000000    0   0   0
N        0.125000000   0.000000000   0.875000000    0   0   0
N        0.000000000   0.125000000   0.875000000    0   0   0
N        0.000000000   0.250000000   0.000000000    0   0   0
N        0.125000000   0.375000000   0.000000000    0   0   0
N        0.125000000   0.250000000   0.125000000    0   0   0
N        0.000000000   0.375000000   0.125000000    0   0   0
N        0.000000000   0.250000000   0.250000000    0   0   0
N        0.125000000   0.375000000   0.250000000    0   0   0
N        0.125000000   0.250000000   0.375000000    0   0   0
N        0.000000000   0.375000000   0.375000000    0   0   0
N        0.000000000   0.250000000   0.500000000    0   0   0
N        0.125000000   0.375000000   0.500000000    0   0   0
N        0.125000000   0.250000000   0.625000000    0   0   0
N        0.000000000   0.375000000   0.625000000    0   0   0
N        0.000000000   0.250000000   0.750000000    0   0   0
N        0.125000000   0.375000000   0.750000000    0   0   0
N        0.125000000   0.250000000   0.875000000    0   0   0
N        0.000000000   0.375000000   0.875000000    0   0   0
N        0.000000000   0.500000000   0.000000000    0   0   0
N        0.125000000   0.625000000   0.000000000    0   0   0
N        0.125000000   0.500000000   0.125000000    0   0   0
N        0.000000000   0.625000000   0.125000000    0   0   0
N        0.000000000   0.500000000   0.250000000    0   0   0
N        0.125000000   0.625000000   0.250000000    0   0   0
N        0.125000000   0.500000000   0.375000000    0   0   0
N        0.000000000   0.625000000   0.375000000    0   0   0
N        0.000000000   0.500000000   0.500000000    0   0   0
N        0.125000000   0.625000000   0.500000000    0   0   0
N        0.125000000   0.500000000   0.625000000    0   0   0
N        0.000000000   0.625000000   0.625000000    0   0   0
N        0.000000000   0.500000000   0.750000000    0   0   0
N        0.125000000   0.625000000   0.750000000    0   0   0
N        0.125000000   0.500000000   0.875000000    0   0   0
N        0.000000000   0.625000000   0.875000000    0   0   0
N        0.000000000   0.750000000   0.000000000    0   0   0
N        0.125000000   0.875000000   0.000000000    0   0   0
N        0.125000000   0.750000000   0.125000000    0   0   0
N        0.000000000   0.875000000   0.125000000    0   0   0
N        0.000000000   0.750000000   0.250000000    0   0   0
N        0.125000000   0.875000000   0.250000000    0   0   0
N        0.125000000   0.750000000   0.375000000    0   0   0
N        0.000000000   0.875000000   0.375000000    0   0   0
N        0.000000000   0.750000000   0.500000000    0   0   0
N        0.125000000   0.875000000   0.500000000    0   0   0
N        0.125000000   0.750000000   0.625000000    0   0   0
N        0.000000000   0.875000000   0.625000000    0   0   0
N        0.000000000   0.750000000   0.750000000    0   0   0
N        0.125000000   0.875000000   0.750000000    0   0   0
N        0.125000000   0.750000000   0.875000000    0   0   0
N        0.000000000   0.875000000   0.875000000    0   0   0
N        0.250000000   0.000000000   0.250000000    0   0   0
N        0.375000000   0.125000000   0.250000000    0   0   0
N        0.375000000   0.000000000   0.375000000    0   0   0
N        0.250000000   0.125000000   0.375000000    0   0   0
N        0.250000000   0.000000000   0.500000000    0   0   0
N        0.375000000   0.125000000   0.500000000    0   0   0
N        0.375000000   0.000000000   0.625000000    0   0   0
N        0.250000000   0.125000000   0.625000000    0   0   0
N        0.250000000   0.000000000   0.750000000    0   0   0
N        0.375000000   0.125000000   0.750000000    0   0   0
N        0.375000000   0.000000000   0.875000000    0   0   0
N        0.250000000   0.125000000   0.875000000    0   0   0
N        0.250000000   0.250000000   0.000000000    0   0   0
N        0.375000000   0.375000000   0.000000000    0   0   0
N        0.375000000   0.250000000   0.125000000    0   0   0
N        0.250000000   0.375000000   0.125000000    0   0   0
N        0.250000000   0.250000000   0.250000000    0   0   0
N        0.375000000   0.375000000   0.250000000    0   0   0
N        0.375000000   0.250000000   0.375000000    0   0   0
N        0.250000000   0.375000000   0.375000000    0   0   0
N        0.250000000   0.250000000   0.500000000    0   0   0
N        0.375000000   0.375000000   0.500000000    0   0   0
N        0.375000000   0.250000000   0.625000000    0   0   0
N        0.250000000   0.375000000   0.625000000    0   0   0
N        0.250000000   0.250000000   0.750000000    0   0   0
N        0.375000000   0.375000000   0.750000000    0   0   0
N        0.375000000   0.250000000   0.875000000    0   0   0
N        0.250000000   0.375000000   0.875000000    0   0   0
N        0.250000000   0.500000000   0.000000000    0   0   0
N        0.375000000   0.625000000   0.000000000    0   0   0
N        0.375000000   0.500000000   0.125000000    0   0   0
N        0.250000000   0.625000000   0.125000000    0   0   0
N        0.250000000   0.500000000   0.250000000    0   0   0
N        0.375000000   0.625000000   0.250000000    0   0   0
N        0.375000000   0.500000000   0.375000000    0   0   0
N        0.250000000   0.625000000   0.375000000    0   0   0
N        0.250000000   0.500000000   0.500000000    0   0   0
N        0.375000000   0.625000000   0.500000000    0   0   0
N        0.375000000   0.500000000   0.625000000    0   0   0
N        0.250000000   0.625000000   0.625000000    0   0   0
N        0.250000000   0.500000000   0.750000000    0   0   0
N        0.375000000   0.625000000   0.750000000    0   0   0
N        0.375000000   0.500000000   0.875000000    0   0   0
N        0.250000000   0.625000000   0.875000000    0   0   0
N        0.250000000   0.750000000   0.000000000    0   0   0
N        0.375000000   0.875000000   0.000000000    0   0   0
N        0.375000000   0.750000000   0.125000000    0   0   0
N        0.250000000   0.875000000   0.125000000    0   0   0
N        0.250000000   0.750000000   0.250000000    0   0   0
N        0.375000000   0.875000000   0.250000000    0   0   0
N        0.375000000   0.750000000   0.375000000    0   0   0
N        0.250000000   0.875000000   0.375000000    0   0   0
N        0.250000000   0.750000000   0.500000000    0   0   0
N        0.375000000   0.875000000   0.500000000    0   0   0
N        0.375000000   0.750000000   0.625000000    0   0   0
N        0.250000000   0.875000000   0.625000000    0   0   0
N        0.250000000   0.750000000   0.750000000    0   0   0
N        0.375000000   0.875000000   0.750000000    0   0   0
N        0.375000000   0.750000000   0.875000000    0   0   0
N        0.250000000   0.875000000   0.875000000    0   0   0
N        0.500000000   0.000000000   0.000000000    0   0   0
N        0.625000000   0.125000000   0.000000000    0   0   0
N        0.625000000   0.000000000   0.125000000    0   0   0
N        0.500000000   0.125000000   0.125000000    0   0   0
N        0.500000000   0.000000000   0.250000000    0   0   0
N        0.625000000   0.125000000   0.250000000    0   0   0
N        0.625000000   0.000000000   0.375000000    0   0   0
N        0.500000000   0.125000000   0.375000000    0   0   0
N        0.500000000   0.000000000   0.500000000    0   0   0
N        0.625000000   0.125000000   0.500000000    0   0   0
N        0.625000000   0.000000000   0.625000000    0   0   0
N        0.500000000   0.125000000   0.625000000    0   0   0
N        0.500000000   0.000000000   0.750000000    0   0   0
N        0.625000000   0.125000000   0.750000000    0   0   0
N        0.625000000   0.000000000   0.875000000    0   0   0
N        0.500000000   0.125000000   0.875000000    0   0   0
N        0.500000000   0.250000000   0.000000000    0   0   0
N        0.625000000   0.375000000   0.000000000    0   0   0
N        0.625000000   0.250000000   0.125000000    0   0   0
N        0.500000000   0.375000000   0.125000000    0   0   0
N        0.500000000   0.250000000   0.250000000    0   0   0
N        0.625000000   0.375000000   0.250000000    0   0   0
N        0.625000000   0.250000000   0.375000000    0   0   0
N        0.500000000   0.375000000   0.375000000    0   0   0
N        0.500000000   0.250000000   0.500000000    0   0   0
N        0.625000000   0.375000000   0.500000000    0   0   0
N        0.625000000   0.250000000   0.625000000    0   0   0
N        0.500000000   0.375000000   0.625000000    0   0   0
N        0.500000000   0.250000000   0.750000000    0   0   0
N        0.625000000   0.375000000   0.750000000    0   0   0
N        0.625000000   0.250000000   0.875000000    0   0   0
N        0.500000000   0.375000000   0.875000000    0   0   0
N        0.500000000   0.500000000   0.000000000    0   0   0
N        0.625000000   0.625000000   0.000000000    0   0   0
N        0.625000000   0.500000000   0.125000000    0   0   0
N        0.500000000   0.625000000   0.125000000    0   0   0
N        0.500000000   0.500000000   0.250000000    0   0   0
N        0.625000000   0.625000000   0.250000000    0   0   0
N        0.625000000   0.500000000   0.375000000    0   0   0
N        0.500000000   0.625000000   0.375000000    0   0   0
N        0.500000000   0.500000000   0.500000000    0   0   0
N        0.625000000   0.625000000   0.500000000    0   0   0
N        0.625000000   0.500000000   0.625000000    0   0   0
N        0.500000000   0.625000000   0.625000000    0   0   0
N        0.500000000   0.500000000   0.750000000    0   0   0
N        0.625000000   0.625000000   0.750000000    0   0   0
[...]
     atom   32 type  1   force =     0.00000000   -0.00000818    0.00000818
     atom   33 type  1   force =    -0.00000000   -0.00000014    0.00000014
     atom   34 type  1   force =     0.00000851   -0.00000813   -0.00000025
     atom   35 type  1   force =     0.00000810   -0.00000024   -0.00000810
     atom   36 type  1   force =     0.00000000   -0.00000865   -0.00000837
     atom   37 type  1   force =     0.00000000    0.00000000    0.00000000
     atom   38 type  1   force =     0.00000837    0.00000865   -0.00000000
     atom   39 type  1   force =     0.00000860   -0.00000000    0.00000860
     atom   40 type  1   force =    -0.00000000    0.00000865    0.00000837
     atom   41 type  1   force =     0.00000000   -0.00000000    0.00000029
     atom   42 type  1   force =     0.00000851    0.00000813    0.00000025
     atom   43 type  1   force =     0.00000877    0.00000000   -0.00000812
     atom   44 type  1   force =    -0.00000000    0.00000818   -0.00000818
     atom   45 type  1   force =     0.00000000    0.00000000    0.00000000
     atom   46 type  1   force =     0.00000877    0.00000812    0.00000000
     atom   47 type  1   force =     0.00000877    0.00000000    0.00000812
     atom   48 type  1   force =    -0.00000000    0.00000818    0.00000818
     atom   49 type  1   force =     0.00000000    0.00000000   -0.00000029
     atom   50 type  1   force =     0.00000851    0.00000813   -0.00000025
     atom   51 type  1   force =     0.00000860    0.00000000   -0.00000860
     atom   52 type  1   force =    -0.00000000    0.00000865   -0.00000837
     atom   53 type  1   force =     0.00000000    0.00000038    0.00000000
     atom   54 type  1   force =     0.00000831   -0.00000831   -0.00000000
     atom   55 type  1   force =     0.00000810    0.00000024    0.00000810
     atom   56 type  1   force =    -0.00000000   -0.00000831    0.00000831
     atom   57 type  1   force =     0.00000000    0.00000014   -0.00000014
     atom   58 type  1   force =     0.00000810   -0.00000810   -0.00000024
     atom   59 type  1   force =     0.00000851   -0.00000025   -0.00000813
     atom   60 type  1   force =    -0.00000000   -0.00000837   -0.00000865
     atom   61 type  1   force =     0.00000000   -0.00000029    0.00000000
     atom   62 type  1   force =     0.00000860   -0.00000860   -0.00000000
     atom   63 type  1   force =     0.00000851   -0.00000025    0.00000813
     atom   64 type  1   force =     0.00000000   -0.00000837    0.00000865
     atom   65 type  1   force =     0.00000000    0.00000014    0.00000014
     atom   66 type  1   force =     0.00000810   -0.00000810    0.00000024
     atom   67 type  1   force =     0.00000810    0.00000024   -0.00000810
     atom   68 type  1   force =    -0.00000000   -0.00000831   -0.00000831
     atom   69 type  1   force =    -0.00000014    0.00000000   -0.00000014
     atom   70 type  1   force =    -0.00000813    0.00000851    0.00000025
     atom   71 type  1   force =    -0.00000818    0.00000000   -0.00000818
     atom   72 type  1   force =     0.00000025    0.00000851   -0.00000813
     atom   73 type  1   force =     0.00000029    0.00000000   -0.00000000
     atom   74 type  1   force =    -0.00000812    0.00000877    0.00000000
     atom   75 type  1   force =    -0.00000818   -0.00000000    0.00000818
     atom   76 type  1   force =     0.00000025    0.00000851    0.00000813
     atom   77 type  1   force =    -0.00000014    0.00000000    0.00000014
     atom   78 type  1   force =    -0.00000813    0.00000851   -0.00000025
     atom   79 type  1   force =    -0.00000865    0.00000000   -0.00000837
     atom   80 type  1   force =    -0.00000024    0.00000810   -0.00000810
     atom   81 type  1   force =    -0.00000014   -0.00000014    0.00000000
     atom   82 type  1   force =    -0.00000818   -0.00000818    0.00000000
     atom   83 type  1   force =    -0.00000813    0.00000025    0.00000851
     atom   84 type  1   force =     0.00000025   -0.00000813    0.00000851
     atom   85 type  1   force =     0.00000021    0.00000021    0.00000021
     atom   86 type  1   force =    -0.00000809   -0.00000809    0.00000017
     atom   87 type  1   force =    -0.00000809    0.00000017   -0.00000809
     atom   88 type  1   force =     0.00000017   -0.00000809   -0.00000809
     atom   89 type  1   force =     0.00000031    0.00000031    0.00000000
     atom   90 type  1   force =    -0.00000835   -0.00000835    0.00000000
     atom   91 type  1   force =    -0.00000809    0.00000017    0.00000809
     atom   92 type  1   force =     0.00000017   -0.00000809    0.00000809
     atom   93 type  1   force =     0.00000021    0.00000021   -0.00000021
     atom   94 type  1   force =    -0.00000809   -0.00000809   -0.00000017
     atom   95 type  1   force =    -0.00000813    0.00000025   -0.00000851
     atom   96 type  1   force =     0.00000025   -0.00000813   -0.00000851
     atom   97 type  1   force =     0.00000029    0.00000000    0.00000000
     atom   98 type  1   force =    -0.00000818    0.00000818    0.00000000
     atom   99 type  1   force =    -0.00000812   -0.00000000    0.00000877
     atom  100 type  1   force =     0.00000025    0.00000813    0.00000851
     atom  101 type  1   force =     0.00000031   -0.00000000    0.00000031
     atom  102 type  1   force =    -0.00000809    0.00000809    0.00000017
     atom  103 type  1   force =    -0.00000835    0.00000000   -0.00000835
     atom  104 type  1   force =     0.00000017    0.00000809   -0.00000809
     atom  105 type  1   force =    -0.00000009    0.00000000    0.00000000
     atom  106 type  1   force =    -0.00000835    0.00000835    0.00000000
     atom  107 type  1   force =    -0.00000835    0.00000000    0.00000835
     atom  108 type  1   force =     0.00000017    0.00000809    0.00000809
     atom  109 type  1   force =     0.00000031    0.00000000   -0.00000031
     atom  110 type  1   force =    -0.00000809    0.00000809   -0.00000017
     atom  111 type  1   force =    -0.00000812   -0.00000000   -0.00000877
     atom  112 type  1   force =     0.00000025    0.00000813   -0.00000851
     atom  113 type  1   force =    -0.00000014    0.00000014    0.00000000
     atom  114 type  1   force =    -0.00000865   -0.00000837    0.00000000
     atom  115 type  1   force =    -0.00000813   -0.00000025    0.00000851
     atom  116 type  1   force =    -0.00000024   -0.00000810    0.00000810
     atom  117 type  1   force =     0.00000021   -0.00000021    0.00000021
     atom  118 type  1   force =    -0.00000813   -0.00000851    0.00000025
     atom  119 type  1   force =    -0.00000809   -0.00000017   -0.00000809
     atom  120 type  1   force =     0.00000025   -0.00000851   -0.00000813
     atom  121 type  1   force =     0.00000031   -0.00000031   -0.00000000
     atom  122 type  1   force =    -0.00000812   -0.00000877   -0.00000000
     atom  123 type  1   force =    -0.00000809   -0.00000017    0.00000809
     atom  124 type  1   force =     0.00000025   -0.00000851    0.00000813
     atom  125 type  1   force =     0.00000021   -0.00000021   -0.00000021
     atom  126 type  1   force =    -0.00000813   -0.00000851   -0.00000025
     atom  127 type  1   force =    -0.00000813   -0.00000025   -0.00000851
     atom  128 type  1   force =    -0.00000024   -0.00000810   -0.00000810
     atom  129 type  1   force =     0.00000000    0.00000000    0.00000000
     atom  130 type  1   force =     0.00000865    0.00000837   -0.00000000
     atom  131 type  1   force =     0.00000865   -0.00000000    0.00000837
     atom  132 type  1   force =     0.00000000    0.00000860    0.00000860
     atom  133 type  1   force =     0.00000000    0.00000000    0.00000029
     atom  134 type  1   force =     0.00000813    0.00000851    0.00000025
     atom  135 type  1   force =     0.00000818    0.00000000   -0.00000818
     atom  136 type  1   force =     0.00000000    0.00000877   -0.00000812
     atom  137 type  1   force =     0.00000000    0.00000000    0.00000000
     atom  138 type  1   force =     0.00000812    0.00000877    0.00000000
     atom  139 type  1   force =     0.00000818   -0.00000000    0.00000818
     atom  140 type  1   force =    -0.00000000    0.00000877    0.00000812
     atom  141 type  1   force =     0.00000000    0.00000000   -0.00000029
     atom  142 type  1   force =     0.00000813    0.00000851   -0.00000025
     atom  143 type  1   force =     0.00000865    0.00000000   -0.00000837
     atom  144 type  1   force =     0.00000000    0.00000860   -0.00000860
     atom  145 type  1   force =     0.00000000    0.00000029    0.00000000
     atom  146 type  1   force =     0.00000818   -0.00000818   -0.00000000
     atom  147 type  1   force =     0.00000813    0.00000025    0.00000851
     atom  148 type  1   force =    -0.00000000   -0.00000812    0.00000877
     atom  149 type  1   force =     0.00000000    0.00000031    0.00000031
     atom  150 type  1   force =     0.00000809   -0.00000809    0.00000017
     atom  151 type  1   force =     0.00000809    0.00000017   -0.00000809
     atom  152 type  1   force =     0.00000000   -0.00000835   -0.00000835
     atom  153 type  1   force =     0.00000000   -0.00000009    0.00000000
     atom  154 type  1   force =     0.00000835   -0.00000835   -0.00000000
     atom  155 type  1   force =     0.00000809    0.00000017    0.00000809
     atom  156 type  1   force =    -0.00000000   -0.00000835    0.00000835
     atom  157 type  1   force =     0.00000000    0.00000031   -0.00000031
     atom  158 type  1   force =     0.00000809   -0.00000809   -0.00000017
     atom  159 type  1   force =     0.00000813    0.00000025   -0.00000851
     atom  160 type  1   force =    -0.00000000   -0.00000812   -0.00000877
     atom  161 type  1   force =     0.00000000    0.00000000    0.00000000
     atom  162 type  1   force =     0.00000818    0.00000818   -0.00000000
     atom  163 type  1   force =     0.00000812   -0.00000000    0.00000877
     atom  164 type  1   force =     0.00000000    0.00000812    0.00000877
     atom  165 type  1   force =     0.00000000    0.00000000   -0.00000009
     atom  166 type  1   force =     0.00000809    0.00000809    0.00000017
     atom  167 type  1   force =     0.00000835   -0.00000000   -0.00000835
     atom  168 type  1   force =     0.00000000    0.00000835   -0.00000835
     atom  169 type  1   force =     0.00000000    0.00000000    0.00000000
     atom  170 type  1   force =     0.00000835    0.00000835    0.00000000
     atom  171 type  1   force =     0.00000835   -0.00000000    0.00000835
     atom  172 type  1   force =     0.00000000    0.00000835    0.00000835
     atom  173 type  1   force =     0.00000000    0.00000000    0.00000009
     atom  174 type  1   force =     0.00000809    0.00000809   -0.00000017
     atom  175 type  1   force =     0.00000812    0.00000000   -0.00000877
     atom  176 type  1   force =     0.00000000    0.00000812   -0.00000877
     atom  177 type  1   force =    -0.00000000   -0.00000029    0.00000000
     atom  178 type  1   force =     0.00000865   -0.00000837   -0.00000000
     atom  179 type  1   force =     0.00000813   -0.00000025    0.00000851
     atom  180 type  1   force =    -0.00000000   -0.00000860    0.00000860
     atom  181 type  1   force =    -0.00000000   -0.00000031    0.00000031
     atom  182 type  1   force =     0.00000813   -0.00000851    0.00000025
     atom  183 type  1   force =     0.00000809   -0.00000017   -0.00000809
     atom  184 type  1   force =     0.00000000   -0.00000877   -0.00000812
     atom  185 type  1   force =     0.00000000    0.00000009   -0.00000000
     atom  186 type  1   force =     0.00000812   -0.00000877   -0.00000000
     atom  187 type  1   force =     0.00000809   -0.00000017    0.00000809
     atom  188 type  1   force =    -0.00000000   -0.00000877    0.00000812
     atom  189 type  1   force =    -0.00000000   -0.00000031   -0.00000031
     atom  190 type  1   force =     0.00000813   -0.00000851   -0.00000025
     atom  191 type  1   force =     0.00000813   -0.00000025   -0.00000851
     atom  192 type  1   force =    -0.00000000   -0.00000860   -0.00000860
     atom  193 type  1   force =     0.00000038   -0.00000000   -0.00000000
     atom  194 type  1   force =    -0.00000831    0.00000831    0.00000000
     atom  195 type  1   force =    -0.00000831   -0.00000000    0.00000831
     atom  196 type  1   force =     0.00000024    0.00000810    0.00000810
     atom  197 type  1   force =     0.00000014   -0.00000000   -0.00000014
     atom  198 type  1   force =    -0.00000810    0.00000810   -0.00000024
     atom  199 type  1   force =    -0.00000837   -0.00000000   -0.00000865
     atom  200 type  1   force =    -0.00000025    0.00000851   -0.00000813
     atom  201 type  1   force =    -0.00000029    0.00000000   -0.00000000
     atom  202 type  1   force =    -0.00000860    0.00000860    0.00000000
     atom  203 type  1   force =    -0.00000837   -0.00000000    0.00000865
     atom  204 type  1   force =    -0.00000025    0.00000851    0.00000813
     atom  205 type  1   force =     0.00000014   -0.00000000    0.00000014
     atom  206 type  1   force =    -0.00000810    0.00000810    0.00000024
     atom  207 type  1   force =    -0.00000831    0.00000000   -0.00000831
     atom  208 type  1   force =     0.00000024    0.00000810   -0.00000810
     atom  209 type  1   force =     0.00000014   -0.00000014   -0.00000000
     atom  210 type  1   force =    -0.00000837   -0.00000865   -0.00000000
     atom  211 type  1   force =    -0.00000810   -0.00000024    0.00000810
     atom  212 type  1   force =    -0.00000025   -0.00000813    0.00000851
     atom  213 type  1   force =    -0.00000021    0.00000021    0.00000021
     atom  214 type  1   force =    -0.00000851   -0.00000813    0.00000025
     atom  215 type  1   force =    -0.00000851    0.00000025   -0.00000813
     atom  216 type  1   force =    -0.00000017   -0.00000809   -0.00000809
     atom  217 type  1   force =    -0.00000031    0.00000031   -0.00000000
     atom  218 type  1   force =    -0.00000877   -0.00000812   -0.00000000
     atom  219 type  1   force =    -0.00000851    0.00000025    0.00000813
     atom  220 type  1   force =    -0.00000017   -0.00000809    0.00000809
     atom  221 type  1   force =    -0.00000021    0.00000021   -0.00000021
     atom  222 type  1   force =    -0.00000851   -0.00000813   -0.00000025
     atom  223 type  1   force =    -0.00000810   -0.00000024   -0.00000810
     atom  224 type  1   force =    -0.00000025   -0.00000813   -0.00000851
     atom  225 type  1   force =    -0.00000029    0.00000000    0.00000000
     atom  226 type  1   force =    -0.00000837    0.00000865    0.00000000
     atom  227 type  1   force =    -0.00000860    0.00000000    0.00000860
     atom  228 type  1   force =    -0.00000025    0.00000813    0.00000851
     atom  229 type  1   force =    -0.00000031   -0.00000000    0.00000031
     atom  230 type  1   force =    -0.00000851    0.00000813    0.00000025
     atom  231 type  1   force =    -0.00000877   -0.00000000   -0.00000812
     atom  232 type  1   force =    -0.00000017    0.00000809   -0.00000809
     atom  233 type  1   force =     0.00000009   -0.00000000    0.00000000
     atom  234 type  1   force =    -0.00000877    0.00000812    0.00000000
     atom  235 type  1   force =    -0.00000877    0.00000000    0.00000812
     atom  236 type  1   force =    -0.00000017    0.00000809    0.00000809
     atom  237 type  1   force =    -0.00000031    0.00000000   -0.00000031
     atom  238 type  1   force =    -0.00000851    0.00000813   -0.00000025
     atom  239 type  1   force =    -0.00000860    0.00000000   -0.00000860
     atom  240 type  1   force =    -0.00000025    0.00000813   -0.00000851
     atom  241 type  1   force =     0.00000014    0.00000014    0.00000000
     atom  242 type  1   force =    -0.00000831   -0.00000831    0.00000000
     atom  243 type  1   force =    -0.00000810    0.00000024    0.00000810
     atom  244 type  1   force =     0.00000024   -0.00000810    0.00000810
     atom  245 type  1   force =    -0.00000021   -0.00000021    0.00000021
     atom  246 type  1   force =    -0.00000810   -0.00000810   -0.00000024
     atom  247 type  1   force =    -0.00000851   -0.00000025   -0.00000813
     atom  248 type  1   force =    -0.00000025   -0.00000851   -0.00000813
     atom  249 type  1   force =    -0.00000031   -0.00000031   -0.00000000
     atom  250 type  1   force =    -0.00000860   -0.00000860    0.00000000
     atom  251 type  1   force =    -0.00000851   -0.00000025    0.00000813
     atom  252 type  1   force =    -0.00000025   -0.00000851    0.00000813
     atom  253 type  1   force =    -0.00000021   -0.00000021   -0.00000021
     atom  254 type  1   force =    -0.00000810   -0.00000810    0.00000024
     atom  255 type  1   force =    -0.00000810    0.00000024   -0.00000810
     atom  256 type  1   force =     0.00000024   -0.00000810   -0.00000810

     Total force =     0.000000     Total SCF correction =     0.000000


     entering subroutine stress ...

          total   stress  (Ry/bohr**3)                   (kbar)     P=    0.05
   0.00000033   0.00000000   0.00000000          0.05      0.00      0.00
   0.00000000   0.00000033   0.00000000          0.00      0.05      0.00
   0.00000000   0.00000000   0.00000033          0.00      0.00      0.05


     Writing output data file pd_vcrelax.save

     init_run     :    108.25s CPU     74.23s WALL (       2 calls)
     electrons    :  16375.97s CPU  11689.59s WALL (       6 calls)
     update_pot   :     11.71s CPU     11.61s WALL (       4 calls)
     forces       :    247.02s CPU    183.05s WALL (       6 calls)
     stress       :   1188.47s CPU   1076.31s WALL (       6 calls)

     Called by init_run:
     wfcinit      :     93.47s CPU     64.42s WALL (       2 calls)
     potinit      :      3.04s CPU      2.18s WALL (       2 calls)

     Called by electrons:
     c_bands      :  13304.55s CPU   9635.29s WALL (     140 calls)
     sum_band     :   2208.20s CPU   1472.64s WALL (     140 calls)
     v_of_rho     :     23.18s CPU     20.36s WALL (     144 calls)
     newd         :    627.88s CPU    319.12s WALL (     144 calls)
     mix_rho      :     47.58s CPU     47.84s WALL (     140 calls)

     Called by c_bands:
     init_us_2    :     13.72s CPU     14.40s WALL (     286 calls)
     regterg      :  13254.35s CPU   9570.13s WALL (     142 calls)

     Called by *egterg:
     h_psi        :   6357.58s CPU   4614.73s WALL (     470 calls)
     s_psi        :   1526.81s CPU    836.40s WALL (     470 calls)
     g_psi        :      3.27s CPU      3.32s WALL (     326 calls)
     rdiaghg      :   2490.09s CPU   2321.25s WALL (     460 calls)

     Called by h_psi:
     add_vuspsi   :   1511.91s CPU    845.33s WALL (     470 calls)

     General routines
     calbec       :   2414.57s CPU   1358.87s WALL (     644 calls)
     fft          :     52.16s CPU     50.17s WALL (    2026 calls)
     fftw         :   3888.56s CPU   3441.04s WALL (  606148 calls)
     davcio       :      0.00s CPU      0.11s WALL (       2 calls)

     Parallel routines
     fft_scatter  :   3393.56s CPU   2912.25s WALL (  608174 calls)

     PAW routines
     PAW_pot      :    169.70s CPU    108.92s WALL (     148 calls)
     PAW_ddot     :     45.13s CPU     45.24s WALL (    4508 calls)
     PAW_symme    :      1.93s CPU      1.77s WALL (     288 calls)

     PWSCF        :     4h59m CPU        3h37m WALL


   This run was terminated on:  14:21:38  24Oct2013            

=------------------------------------------------------------------------------=
   JOB DONE.
=------------------------------------------------------------------------------=
Application 6058691 resources: utime ~2277596s, stime ~66706s
