
 ========================   JOB MAP   ========================

 Data for node: bb2a3c16	Num procs: 8
 	Process OMPI jobid: [28805,1] Process rank: 0
 	Process OMPI jobid: [28805,1] Process rank: 4
 	Process OMPI jobid: [28805,1] Process rank: 8
 	Process OMPI jobid: [28805,1] Process rank: 12
 	Process OMPI jobid: [28805,1] Process rank: 16
 	Process OMPI jobid: [28805,1] Process rank: 20
 	Process OMPI jobid: [28805,1] Process rank: 24
 	Process OMPI jobid: [28805,1] Process rank: 28

 Data for node: bb2a3c15	Num procs: 8
 	Process OMPI jobid: [28805,1] Process rank: 1
 	Process OMPI jobid: [28805,1] Process rank: 5
 	Process OMPI jobid: [28805,1] Process rank: 9
 	Process OMPI jobid: [28805,1] Process rank: 13
 	Process OMPI jobid: [28805,1] Process rank: 17
 	Process OMPI jobid: [28805,1] Process rank: 21
 	Process OMPI jobid: [28805,1] Process rank: 25
 	Process OMPI jobid: [28805,1] Process rank: 29

 Data for node: bb2a3c14	Num procs: 8
 	Process OMPI jobid: [28805,1] Process rank: 2
 	Process OMPI jobid: [28805,1] Process rank: 6
 	Process OMPI jobid: [28805,1] Process rank: 10
 	Process OMPI jobid: [28805,1] Process rank: 14
 	Process OMPI jobid: [28805,1] Process rank: 18
 	Process OMPI jobid: [28805,1] Process rank: 22
 	Process OMPI jobid: [28805,1] Process rank: 26
 	Process OMPI jobid: [28805,1] Process rank: 30

 Data for node: bb2a3c06	Num procs: 8
 	Process OMPI jobid: [28805,1] Process rank: 3
 	Process OMPI jobid: [28805,1] Process rank: 7
 	Process OMPI jobid: [28805,1] Process rank: 11
 	Process OMPI jobid: [28805,1] Process rank: 15
 	Process OMPI jobid: [28805,1] Process rank: 19
 	Process OMPI jobid: [28805,1] Process rank: 23
 	Process OMPI jobid: [28805,1] Process rank: 27
 	Process OMPI jobid: [28805,1] Process rank: 31

 =============================================================

     Program PWSCF v.5.0.2 (svn rev. 9392) starts on 15Oct2013 at 20:30: 7 

     This program is part of the open-source Quantum ESPRESSO suite
     for quantum simulation of materials; please cite
         "P. Giannozzi et al., J. Phys.:Condens. Matter 21 395502 (2009);
          URL http://www.quantum-espresso.org", 
     in publications or presentations arising from this work. More details at
     http://www.quantum-espresso.org/quote.php

     Parallel version (MPI), running on    32 processors
     R & G space division:  proc/nbgrp/npool/nimage =      32

     Current dimensions of program PWSCF are:
     Max number of different atomic species (ntypx) = 10
     Max number of k-points (npk) =  40000
     Max angular momentum in pseudopotentials (lmaxx) =  3
     Reading input from /gpfs/bb/bxp912/pwscf/input_4e8c9584b97d3_79ed.in
Warning: card &IONS ignored
Warning: card ION_DYNAMICS='BFGS', ignored
Warning: card / ignored
Warning: card &CELL ignored
Warning: card CELL_DYNAMICS='BFGS', ignored
Warning: card PRESS=0.0, ignored
Warning: card CELL_FACTOR=2.0, ignored
Warning: card / ignored
               file Al.pbe-n-kjpaw_psl.0.1.UPF: wavefunction(s)  3S renormalized

     Subspace diagonalization in iterative solution of the eigenvalue problem:
     a serial algorithm will be used

 
     Parallelization info
     --------------------
     sticks:   dense  smooth     PW     G-vecs:    dense   smooth      PW
     Min         481     324     84                44979    24827    3248
     Max         483     325     85                44982    24855    3250
     Sum       15421   10389   2693              1439361   794839  103959
 


     bravais-lattice index     =           14
     lattice parameter (alat)  =      30.5130  a.u.
     unit-cell volume          =   28409.0236 (a.u.)^3
     number of atoms/cell      =          256
     number of atomic types    =            1
     number of electrons       =       768.00
     number of Kohn-Sham states=          461
     kinetic-energy cutoff     =      35.0000  Ry
     charge density cutoff     =     208.0000  Ry
     convergence threshold     =      1.0E-07
     mixing beta               =       0.7000
     number of iterations used =            8  local-TF  mixing
     Exchange-correlation      =  SLA  PW   PBX  PBC ( 1 4 3 4 0)
     EXX-fraction              =        0.00

     celldm(1)=  30.513037  celldm(2)=   1.000000  celldm(3)=   1.000000
     celldm(4)=   0.000000  celldm(5)=   0.000000  celldm(6)=   0.000000

     crystal axes: (cart. coord. in units of alat)
               a(1) = (   1.000000   0.000000   0.000000 )  
               a(2) = (   0.000000   1.000000   0.000000 )  
               a(3) = (   0.000000   0.000000   1.000000 )  

     reciprocal axes: (cart. coord. in units 2 pi/alat)
               b(1) = (  1.000000  0.000000  0.000000 )  
               b(2) = (  0.000000  1.000000  0.000000 )  
               b(3) = (  0.000000  0.000000  1.000000 )  


     PseudoPot. # 1 for Al read from file:
     /gpfs/bb/bxp912/pseudopotentials/Al.pbe-n-kjpaw_psl.0.1.UPF
     MD5 check sum: c290c600b2b3f4e95cb15d62bc64d19d
     Pseudo is Projector augmented-wave + core cor, Zval =  3.0
     Generated using "atomic" code by A. Dal Corso  v.5.0.2 svn rev. 9392
     Shape of augmentation charge: PSQ
     Using radial grid of 1135 points,  4 beta functions with: 
                l(1) =   0
                l(2) =   0
                l(3) =   1
                l(4) =   1
     Q(r) pseudized with 0 coefficients 


     atomic species   valence    mass     pseudopotential
        N              3.00    26.98154     Al( 1.00)

     No symmetry found



   Cartesian axes

     site n.     atom                  positions (alat units)
         1           N   tau(   1) = (   0.9950480   0.9757320   0.9888680  )
         2           N   tau(   2) = (   0.1346620   0.1307820   0.0172760  )
         3           N   tau(   3) = (   0.1392470   0.9845200   0.1295440  )
         4           N   tau(   4) = (   0.0168870   0.1073750   0.1170140  )
         5           N   tau(   5) = (   0.2285930   0.0034010   0.0056890  )
         6           N   tau(   6) = (   0.2224320   0.1386760   0.1004810  )
         7           N   tau(   7) = (   0.3817490   0.1292290   0.0140650  )
         8           N   tau(   8) = (   0.3642100   0.0157210   0.1356950  )
         9           N   tau(   9) = (   0.9901620   0.0180220   0.2706620  )
        10           N   tau(  10) = (   0.1289440   0.1182820   0.2841410  )
        11           N   tau(  11) = (   0.1442680   0.9861610   0.3964460  )
        12           N   tau(  12) = (   0.9878740   0.1460180   0.3638830  )
        13           N   tau(  13) = (   0.9887860   0.9824970   0.5029200  )
        14           N   tau(  14) = (   0.1536860   0.1353500   0.4865100  )
        15           N   tau(  15) = (   0.1449190   0.9959990   0.6430330  )
        16           N   tau(  16) = (   0.0103700   0.1218410   0.6295470  )
        17           N   tau(  17) = (   0.9864850   0.9967410   0.7571380  )
        18           N   tau(  18) = (   0.1237980   0.1146460   0.7298830  )
        19           N   tau(  19) = (   0.1264490   0.9793270   0.8892560  )
        20           N   tau(  20) = (   0.0159890   0.1192650   0.8620980  )
        21           N   tau(  21) = (   0.9797070   0.2364280   0.9983840  )
        22           N   tau(  22) = (   0.1048190   0.3662360   0.9953920  )
        23           N   tau(  23) = (   0.1143320   0.2573270   0.1035890  )
        24           N   tau(  24) = (   0.0085380   0.3501210   0.1340250  )
        25           N   tau(  25) = (   0.9851740   0.2544240   0.2303680  )
        26           N   tau(  26) = (   0.1077700   0.3607230   0.2644500  )
        27           N   tau(  27) = (   0.1210420   0.2421730   0.3857470  )
        28           N   tau(  28) = (   0.0235830   0.3636900   0.3909870  )
        29           N   tau(  29) = (   0.0080490   0.2581200   0.5069440  )
        30           N   tau(  30) = (   0.1063560   0.3600820   0.4844930  )
        31           N   tau(  31) = (   0.1119080   0.2576300   0.6444140  )
        32           N   tau(  32) = (   0.9799220   0.3645960   0.6337440  )
        33           N   tau(  33) = (   0.9883080   0.2661640   0.7394110  )
        34           N   tau(  34) = (   0.1341000   0.3636090   0.7264720  )
        35           N   tau(  35) = (   0.1176770   0.2369610   0.8599310  )
        36           N   tau(  36) = (   0.0106400   0.3915320   0.8637490  )
        37           N   tau(  37) = (   0.9867310   0.5120570   0.0112070  )
        38           N   tau(  38) = (   0.1051730   0.6206580   0.9769920  )
        39           N   tau(  39) = (   0.1221560   0.5071390   0.1040730  )
        40           N   tau(  40) = (   0.0068400   0.6476710   0.1225410  )
        41           N   tau(  41) = (   0.9966890   0.5197030   0.2443630  )
        42           N   tau(  42) = (   0.1349660   0.6102880   0.2336900  )
        43           N   tau(  43) = (   0.1414660   0.4956830   0.3686120  )
        44           N   tau(  44) = (   0.0093040   0.6332130   0.3585580  )
        45           N   tau(  45) = (   0.0163750   0.4915940   0.4837950  )
        46           N   tau(  46) = (   0.1328290   0.6073470   0.5132200  )
        47           N   tau(  47) = (   0.1141350   0.4851380   0.6456750  )
        48           N   tau(  48) = (   0.0073110   0.5854420   0.6360420  )
        49           N   tau(  49) = (   0.0091430   0.4897540   0.7401570  )
        50           N   tau(  50) = (   0.1430040   0.6295760   0.7675090  )
        51           N   tau(  51) = (   0.1144430   0.5138120   0.8810740  )
        52           N   tau(  52) = (   0.0057640   0.6188670   0.8590150  )
        53           N   tau(  53) = (   0.0071540   0.7349510   0.0080930  )
        54           N   tau(  54) = (   0.1352650   0.8511430   0.9924370  )
        55           N   tau(  55) = (   0.1511790   0.7609040   0.1307180  )
        56           N   tau(  56) = (   0.0213360   0.8668890   0.1072040  )
        57           N   tau(  57) = (   0.0157220   0.7463910   0.2328700  )
        58           N   tau(  58) = (   0.1016630   0.8585830   0.2429410  )
        59           N   tau(  59) = (   0.1415610   0.7357000   0.3640990  )
        60           N   tau(  60) = (   0.9983210   0.8987220   0.3864760  )
        61           N   tau(  61) = (   0.0153980   0.7648690   0.4789140  )
        62           N   tau(  62) = (   0.1354950   0.8647030   0.5114700  )
        63           N   tau(  63) = (   0.1329480   0.7562240   0.6273990  )
        64           N   tau(  64) = (   0.0024840   0.8726760   0.6138530  )
        65           N   tau(  65) = (   0.0128090   0.7710150   0.7736440  )
        66           N   tau(  66) = (   0.1383640   0.8582970   0.7636860  )
        67           N   tau(  67) = (   0.1089730   0.7574970   0.8870810  )
        68           N   tau(  68) = (   0.9912930   0.8694380   0.8929370  )
        69           N   tau(  69) = (   0.2709320   0.9758190   0.2382110  )
        70           N   tau(  70) = (   0.3849330   0.1458280   0.2628200  )
        71           N   tau(  71) = (   0.3604710   0.0110670   0.3852790  )
        72           N   tau(  72) = (   0.2531360   0.1295280   0.3829010  )
        73           N   tau(  73) = (   0.2479900   0.9898220   0.5039540  )
        74           N   tau(  74) = (   0.3840330   0.1223560   0.5205180  )
        75           N   tau(  75) = (   0.3596910   0.0134610   0.6124140  )
        76           N   tau(  76) = (   0.2601170   0.1335650   0.6114040  )
        77           N   tau(  77) = (   0.2272740   0.9804900   0.7740220  )
        78           N   tau(  78) = (   0.3892410   0.1094260   0.7552220  )
        79           N   tau(  79) = (   0.3674910   0.0164410   0.8915000  )
        80           N   tau(  80) = (   0.2316220   0.1458770   0.8764050  )
        81           N   tau(  81) = (   0.2629430   0.2641590   0.9920870  )
        82           N   tau(  82) = (   0.3883840   0.3958970   0.0069590  )
        83           N   tau(  83) = (   0.3621580   0.2321790   0.1461810  )
        84           N   tau(  84) = (   0.2470690   0.3848690   0.1145700  )
        85           N   tau(  85) = (   0.2601490   0.2628690   0.2644090  )
        86           N   tau(  86) = (   0.3589700   0.4036010   0.2542760  )
        87           N   tau(  87) = (   0.3883990   0.2391430   0.3800920  )
        88           N   tau(  88) = (   0.2413640   0.3630090   0.3992700  )
        89           N   tau(  89) = (   0.2524690   0.2374310   0.5172120  )
        90           N   tau(  90) = (   0.3624550   0.3816880   0.5111760  )
        91           N   tau(  91) = (   0.3598890   0.2534980   0.6124680  )
        92           N   tau(  92) = (   0.2722610   0.3936930   0.6388410  )
        93           N   tau(  93) = (   0.2479010   0.2358900   0.7473510  )
        94           N   tau(  94) = (   0.3512020   0.3879440   0.7614370  )
        95           N   tau(  95) = (   0.3859820   0.2620320   0.8696650  )
        96           N   tau(  96) = (   0.2382330   0.3689490   0.8636090  )
        97           N   tau(  97) = (   0.2343610   0.5194030   0.9832330  )
        98           N   tau(  98) = (   0.3864130   0.6150310   0.0086330  )
        99           N   tau(  99) = (   0.3902420   0.5116140   0.1413990  )
       100           N   tau( 100) = (   0.2365680   0.6578250   0.1443270  )
       101           N   tau( 101) = (   0.2543160   0.5238200   0.2716490  )
       102           N   tau( 102) = (   0.4011800   0.6067140   0.2444880  )
       103           N   tau( 103) = (   0.3669060   0.4908260   0.3588470  )
       104           N   tau( 104) = (   0.2454820   0.6467800   0.3601090  )
       105           N   tau( 105) = (   0.2372180   0.5190890   0.4903260  )
       106           N   tau( 106) = (   0.3598690   0.6274210   0.4840700  )
       107           N   tau( 107) = (   0.3720780   0.4874940   0.6131970  )
       108           N   tau( 108) = (   0.2395490   0.6165030   0.6140330  )
       109           N   tau( 109) = (   0.2604180   0.4891070   0.7554190  )
       110           N   tau( 110) = (   0.4016810   0.6151910   0.7424430  )
       111           N   tau( 111) = (   0.3633340   0.4929830   0.8623070  )
       112           N   tau( 112) = (   0.2389760   0.6110230   0.8640840  )
       113           N   tau( 113) = (   0.2651230   0.7282460   0.9858220  )
       114           N   tau( 114) = (   0.3768040   0.8968010   0.0097500  )
       115           N   tau( 115) = (   0.3881930   0.7663770   0.1191020  )
       116           N   tau( 116) = (   0.2340760   0.8526950   0.1187830  )
       117           N   tau( 117) = (   0.2703500   0.7463340   0.2640820  )
       118           N   tau( 118) = (   0.3610420   0.8848360   0.2416440  )
       119           N   tau( 119) = (   0.3958730   0.7538180   0.3577430  )
       120           N   tau( 120) = (   0.2690650   0.8928970   0.3662420  )
       121           N   tau( 121) = (   0.2371360   0.7637470   0.5270060  )
       122           N   tau( 122) = (   0.3505450   0.8645930   0.5092020  )
       123           N   tau( 123) = (   0.3872640   0.7405950   0.6132890  )
       124           N   tau( 124) = (   0.2269610   0.9006670   0.6187590  )
       125           N   tau( 125) = (   0.2390900   0.7544150   0.7633630  )
       126           N   tau( 126) = (   0.3817730   0.8859100   0.7358410  )
       127           N   tau( 127) = (   0.3885980   0.7420620   0.8884900  )
       128           N   tau( 128) = (   0.2462310   0.8882270   0.8777880  )
       129           N   tau( 129) = (   0.5040330   0.9888590   0.0261980  )
       130           N   tau( 130) = (   0.6076420   0.1395670   0.9852490  )
       131           N   tau( 131) = (   0.6331500   0.9899310   0.1098160  )
       132           N   tau( 132) = (   0.5057740   0.1387870   0.1335970  )
       133           N   tau( 133) = (   0.5028290   0.0090640   0.2319590  )
       134           N   tau( 134) = (   0.6405520   0.1158390   0.2726240  )
       135           N   tau( 135) = (   0.6430360   0.9838960   0.3880300  )
       136           N   tau( 136) = (   0.5155520   0.1172810   0.3882770  )
       137           N   tau( 137) = (   0.4947240   0.9927800   0.4940320  )
       138           N   tau( 138) = (   0.6001670   0.1472550   0.5186590  )
       139           N   tau( 139) = (   0.6101900   0.9864420   0.6403100  )
       140           N   tau( 140) = (   0.4912320   0.1321350   0.6495500  )
       141           N   tau( 141) = (   0.4893090   0.9854800   0.7333070  )
       142           N   tau( 142) = (   0.6391960   0.0975970   0.7359940  )
       143           N   tau( 143) = (   0.6351540   0.9908500   0.8952100  )
       144           N   tau( 144) = (   0.5027930   0.1096340   0.8624490  )
       145           N   tau( 145) = (   0.5059690   0.2295360   0.0219420  )
       146           N   tau( 146) = (   0.6186090   0.3864390   0.9972060  )
       147           N   tau( 147) = (   0.6289070   0.2450900   0.1374200  )
       148           N   tau( 148) = (   0.4935120   0.3662550   0.1172550  )
       149           N   tau( 149) = (   0.5154850   0.2660540   0.2735000  )
       150           N   tau( 150) = (   0.6422600   0.3803580   0.2384310  )
       151           N   tau( 151) = (   0.6364190   0.2400750   0.3630760  )
       152           N   tau( 152) = (   0.5065110   0.3704000   0.3891470  )
       153           N   tau( 153) = (   0.4970290   0.2368580   0.5093470  )
       154           N   tau( 154) = (   0.6123800   0.3803820   0.5108320  )
       155           N   tau( 155) = (   0.6375120   0.2561360   0.6048160  )
       156           N   tau( 156) = (   0.4840400   0.3839840   0.6335760  )
       157           N   tau( 157) = (   0.4876020   0.2604890   0.7319670  )
       158           N   tau( 158) = (   0.6330140   0.3545050   0.7431820  )
       159           N   tau( 159) = (   0.6403140   0.2418270   0.8725410  )
       160           N   tau( 160) = (   0.4786830   0.3508360   0.8825700  )
       161           N   tau( 161) = (   0.4838650   0.4940110   0.0040410  )
       162           N   tau( 162) = (   0.6464980   0.5984490   0.0076100  )
       163           N   tau( 163) = (   0.6152320   0.4860840   0.1347640  )
       164           N   tau( 164) = (   0.4884200   0.6382450   0.1037750  )
       165           N   tau( 165) = (   0.4882220   0.4935760   0.2698390  )
       166           N   tau( 166) = (   0.6327930   0.6148110   0.2644550  )
       167           N   tau( 167) = (   0.6463630   0.4954560   0.3546860  )
       168           N   tau( 168) = (   0.5143390   0.6454190   0.3869330  )
       169           N   tau( 169) = (   0.5043470   0.4911450   0.4828470  )
       170           N   tau( 170) = (   0.6332430   0.6264880   0.5158850  )
       171           N   tau( 171) = (   0.6030500   0.4889070   0.6351860  )
       172           N   tau( 172) = (   0.5178970   0.6396240   0.6188740  )
       173           N   tau( 173) = (   0.4924850   0.4825440   0.7539730  )
       174           N   tau( 174) = (   0.6347190   0.6332640   0.7308480  )
       175           N   tau( 175) = (   0.6474770   0.5089520   0.8614120  )
       176           N   tau( 176) = (   0.5180060   0.6227210   0.8937600  )
       177           N   tau( 177) = (   0.5096040   0.7337490   0.0121640  )
       178           N   tau( 178) = (   0.6122580   0.8591010   0.0210310  )
       179           N   tau( 179) = (   0.6109100   0.7753090   0.0988030  )
       180           N   tau( 180) = (   0.4723160   0.8520690   0.1434800  )
       181           N   tau( 181) = (   0.4906280   0.7470180   0.2707070  )
       182           N   tau( 182) = (   0.6067330   0.8867350   0.2419200  )
       183           N   tau( 183) = (   0.6359100   0.7323510   0.3811520  )
       184           N   tau( 184) = (   0.4746980   0.8507890   0.3590310  )
       185           N   tau( 185) = (   0.4840840   0.7320030   0.4987810  )
       186           N   tau( 186) = (   0.6187640   0.8824390   0.5165070  )
       187           N   tau( 187) = (   0.6293830   0.7402750   0.6204140  )
       188           N   tau( 188) = (   0.4862810   0.8634000   0.6408300  )
       189           N   tau( 189) = (   0.4959460   0.7388320   0.7633940  )
       190           N   tau( 190) = (   0.6487100   0.8957340   0.7249600  )
       191           N   tau( 191) = (   0.6155100   0.7576510   0.8656620  )
       192           N   tau( 192) = (   0.4838460   0.8876910   0.8776390  )
       193           N   tau( 193) = (   0.7330840   0.9932960   0.0029690  )
       194           N   tau( 194) = (   0.8529150   0.1383380   0.0056500  )
       195           N   tau( 195) = (   0.8878370   0.0116350   0.1438000  )
       196           N   tau( 196) = (   0.7590430   0.1381990   0.1071690  )
       197           N   tau( 197) = (   0.7367020   0.9902260   0.2641080  )
       198           N   tau( 198) = (   0.8927460   0.1284570   0.2356710  )
       199           N   tau( 199) = (   0.8969310   0.9928950   0.3981380  )
       200           N   tau( 200) = (   0.7651010   0.1360670   0.3985290  )
       201           N   tau( 201) = (   0.7639170   0.0114180   0.5199060  )
       202           N   tau( 202) = (   0.8804210   0.1429320   0.4866630  )
       203           N   tau( 203) = (   0.8980890   0.0185550   0.6152850  )
       204           N   tau( 204) = (   0.7543320   0.1268760   0.6425270  )
       205           N   tau( 205) = (   0.7348370   0.0107880   0.7642370  )
       206           N   tau( 206) = (   0.8855760   0.1395130   0.7389130  )
       207           N   tau( 207) = (   0.8686570   0.9743930   0.8701200  )
       208           N   tau( 208) = (   0.7396960   0.1482770   0.8775150  )
       209           N   tau( 209) = (   0.7654330   0.2634540   0.9893420  )
       210           N   tau( 210) = (   0.8897320   0.3943160   0.0077220  )
       211           N   tau( 211) = (   0.8864640   0.2335960   0.1384180  )
       212           N   tau( 212) = (   0.7644130   0.3572080   0.1081650  )
       213           N   tau( 213) = (   0.7440990   0.2744450   0.2601500  )
       214           N   tau( 214) = (   0.8648470   0.3796250   0.2317150  )
       215           N   tau( 215) = (   0.8652480   0.2645170   0.3881280  )
       216           N   tau( 216) = (   0.7343560   0.3884520   0.3815300  )
       217           N   tau( 217) = (   0.7643760   0.2241530   0.5108760  )
       218           N   tau( 218) = (   0.8657890   0.3539170   0.5155070  )
       219           N   tau( 219) = (   0.8830380   0.2599900   0.6296020  )
       220           N   tau( 220) = (   0.7720590   0.3900790   0.6094280  )
       221           N   tau( 221) = (   0.7613140   0.2587140   0.7696120  )
       222           N   tau( 222) = (   0.8672930   0.3842170   0.7735050  )
       223           N   tau( 223) = (   0.8510140   0.2600880   0.8618670  )
       224           N   tau( 224) = (   0.7552680   0.3683090   0.8677460  )
       225           N   tau( 225) = (   0.7661220   0.5174010   0.0156720  )
       226           N   tau( 226) = (   0.8897540   0.6460510   0.9924510  )
       227           N   tau( 227) = (   0.8634440   0.4925410   0.1089000  )
       228           N   tau( 228) = (   0.7640190   0.6138610   0.1368660  )
       229           N   tau( 229) = (   0.7551190   0.4788120   0.2558530  )
       230           N   tau( 230) = (   0.8889950   0.6170840   0.2582980  )
       231           N   tau( 231) = (   0.8541200   0.4941760   0.3517040  )
       232           N   tau( 232) = (   0.7621620   0.6468850   0.3673450  )
       233           N   tau( 233) = (   0.7259040   0.4914650   0.5216580  )
       234           N   tau( 234) = (   0.8641070   0.6358630   0.5092890  )
       235           N   tau( 235) = (   0.8637830   0.4884320   0.6152350  )
       236           N   tau( 236) = (   0.7342210   0.6412660   0.6219970  )
       237           N   tau( 237) = (   0.7420330   0.4957040   0.7589860  )
       238           N   tau( 238) = (   0.8933990   0.6320810   0.7651940  )
       239           N   tau( 239) = (   0.8981820   0.5057620   0.8863320  )
       240           N   tau( 240) = (   0.7219120   0.6135940   0.8900260  )
       241           N   tau( 241) = (   0.7424570   0.7551380   0.9922970  )
       242           N   tau( 242) = (   0.8894620   0.8587150   0.9842770  )
       243           N   tau( 243) = (   0.8790510   0.7408170   0.1394240  )
       244           N   tau( 244) = (   0.7605450   0.8690750   0.0999930  )
       245           N   tau( 245) = (   0.7458420   0.7369090   0.2398060  )
       246           N   tau( 246) = (   0.8854120   0.8606900   0.2358210  )
       247           N   tau( 247) = (   0.8592700   0.7605400   0.3769740  )
       248           N   tau( 248) = (   0.7619610   0.8897100   0.3649150  )
       249           N   tau( 249) = (   0.7707450   0.7291470   0.5101840  )
       250           N   tau( 250) = (   0.8599140   0.8923820   0.5031510  )
       251           N   tau( 251) = (   0.8868960   0.7690580   0.6263420  )
       252           N   tau( 252) = (   0.7530510   0.8582520   0.6309670  )
       253           N   tau( 253) = (   0.7363270   0.7297470   0.7622710  )
       254           N   tau( 254) = (   0.8881020   0.8794720   0.7610580  )
       255           N   tau( 255) = (   0.8835280   0.7795150   0.8849740  )
       256           N   tau( 256) = (   0.7579090   0.8631840   0.8781040  )

     number of k points=     4  Marzari-Vanderbilt smearing, width (Ry)=  0.0500
                       cart. coord. in units 2pi/alat
        k(    1) = (   0.2500000   0.2500000   0.2500000), wk =   0.5000000
        k(    2) = (  -0.2500000  -0.2500000   0.2500000), wk =   0.5000000
        k(    3) = (  -0.2500000   0.2500000  -0.2500000), wk =   0.5000000
        k(    4) = (   0.2500000  -0.2500000  -0.2500000), wk =   0.5000000

     Dense  grid:  1439361 G-vectors     FFT dimensions: ( 144, 144, 144)

     Smooth grid:   794839 G-vectors     FFT dimensions: ( 120, 120, 120)

     Largest allocated arrays     est. size (Mb)     dimensions
        Kohn-Sham Wavefunctions        21.93 Mb     (   3117,  461)
        NL pseudopotentials            97.41 Mb     (   3117, 2048)
        Each V/rho on FFT grid          1.58 Mb     ( 103680)
        Each G-vector array             0.34 Mb     (  44980)
        G-vector shells                 0.03 Mb     (   3845)
     Largest temporary arrays     est. size (Mb)     dimensions
        Auxiliary wavefunctions        87.70 Mb     (   3117, 1844)
        Each subspace H/S matrix       51.89 Mb     (1844,1844)
        Each <psi_i|beta_j> matrix     14.41 Mb     (   2048,  461)
        Arrays for rho mixing          12.66 Mb     ( 103680,   8)

     Check: negative/imaginary core charge=   -0.000006    0.000000

     Initial potential from superposition of free atoms

     starting charge  767.41368, renormalised to  768.00000
     Starting wfc are 1024 randomized atomic wfcs
     Checking if some PAW data can be deallocated... 

     total cpu time spent up to now is       83.2 secs

     Self-consistent Calculation

     iteration #  1     ecut=    35.00 Ry     beta=0.70
     Davidson diagonalization with overlap
     ethr =  1.00E-02,  avg # of iterations =  3.0

     total cpu time spent up to now is      245.7 secs

     total energy              =  -10103.07567670 Ry
     Harris-Foulkes estimate   =  -10105.31519629 Ry
     estimated scf accuracy    <       9.86298043 Ry

     iteration #  2     ecut=    35.00 Ry     beta=0.70
     Davidson diagonalization with overlap
     ethr =  1.28E-03,  avg # of iterations =  2.0

     total cpu time spent up to now is      343.6 secs

     total energy              =  -10102.67773345 Ry
     Harris-Foulkes estimate   =  -10103.73316452 Ry
     estimated scf accuracy    <       2.56834932 Ry

     iteration #  3     ecut=    35.00 Ry     beta=0.70
     Davidson diagonalization with overlap
     ethr =  3.34E-04,  avg # of iterations =  4.2

     total cpu time spent up to now is      541.6 secs

     total energy              =  -10103.47901472 Ry
     Harris-Foulkes estimate   =  -10103.58831985 Ry
     estimated scf accuracy    <       0.66821097 Ry

     iteration #  4     ecut=    35.00 Ry     beta=0.70
     Davidson diagonalization with overlap
     ethr =  8.70E-05,  avg # of iterations =  2.0

     total cpu time spent up to now is      642.4 secs

     total energy              =  -10103.44098296 Ry
     Harris-Foulkes estimate   =  -10103.51202981 Ry
     estimated scf accuracy    <       0.22004259 Ry

     iteration #  5     ecut=    35.00 Ry     beta=0.70
     Davidson diagonalization with overlap
     ethr =  2.87E-05,  avg # of iterations = 10.0

     total cpu time spent up to now is      910.3 secs

     total energy              =  -10103.49343042 Ry
     Harris-Foulkes estimate   =  -10103.50048306 Ry
     estimated scf accuracy    <       0.05062985 Ry

     iteration #  6     ecut=    35.00 Ry     beta=0.70
     Davidson diagonalization with overlap
     ethr =  6.59E-06,  avg # of iterations =  4.2

     total cpu time spent up to now is     1030.0 secs

     total energy              =  -10103.49209189 Ry
     Harris-Foulkes estimate   =  -10103.49626497 Ry
     estimated scf accuracy    <       0.01486564 Ry

     iteration #  7     ecut=    35.00 Ry     beta=0.70
     Davidson diagonalization with overlap
     ethr =  1.94E-06,  avg # of iterations =  8.5

     total cpu time spent up to now is     1284.6 secs

     total energy              =  -10103.49546896 Ry
     Harris-Foulkes estimate   =  -10103.49610077 Ry
     estimated scf accuracy    <       0.00376082 Ry

     iteration #  8     ecut=    35.00 Ry     beta=0.70
     Davidson diagonalization with overlap
     ethr =  4.90E-07,  avg # of iterations =  3.0

     total cpu time spent up to now is     1391.8 secs

     total energy              =  -10103.49562574 Ry
     Harris-Foulkes estimate   =  -10103.49575429 Ry
     estimated scf accuracy    <       0.00050997 Ry

     iteration #  9     ecut=    35.00 Ry     beta=0.70
     Davidson diagonalization with overlap
     ethr =  6.64E-08,  avg # of iterations =  4.0

     total cpu time spent up to now is     1595.6 secs

     total energy              =  -10103.49581067 Ry
     Harris-Foulkes estimate   =  -10103.49583045 Ry
     estimated scf accuracy    <       0.00022941 Ry

     iteration # 10     ecut=    35.00 Ry     beta=0.70
     Davidson diagonalization with overlap
     ethr =  2.99E-08,  avg # of iterations =  1.0

     total cpu time spent up to now is     1685.9 secs

     total energy              =  -10103.49579429 Ry
     Harris-Foulkes estimate   =  -10103.49581521 Ry
     estimated scf accuracy    <       0.00010563 Ry

     iteration # 11     ecut=    35.00 Ry     beta=0.70
     Davidson diagonalization with overlap
     ethr =  1.38E-08,  avg # of iterations =  3.0

     total cpu time spent up to now is     1804.5 secs

     End of self-consistent calculation

          k = 0.2500 0.2500 0.2500 ( 99252 PWs)   bands (ev):

    -3.6038  -3.4296  -3.2978  -3.2478  -3.1107  -3.0316  -2.9429  -2.8409
    -2.7691  -2.7437  -2.7157  -2.6107  -2.4993  -2.4692  -2.4359  -2.4121
    -2.2985  -2.2484  -2.1964  -2.1366  -2.0167  -1.9598  -1.9133  -1.8211
    -1.7771  -1.7414  -1.6983  -1.6804  -1.6330  -1.6242  -1.5434  -1.4735
    -1.4057  -1.3433  -1.2918  -1.2419  -1.2104  -1.1720  -1.0960  -1.0803
    -1.0362  -0.9580  -0.9168  -0.9003  -0.8679  -0.8343  -0.7731  -0.7077
    -0.6926  -0.6481  -0.6078  -0.5580  -0.5135  -0.4969  -0.4711  -0.4270
    -0.3617  -0.3250  -0.2664  -0.2291  -0.2096  -0.1681  -0.1406  -0.1044
    -0.0586  -0.0080   0.0314   0.0709   0.1020   0.1414   0.1975   0.2294
     0.2523   0.2854   0.3153   0.3781   0.3990   0.4490   0.4700   0.5044
     0.5504   0.5898   0.6119   0.6500   0.6837   0.7292   0.7683   0.7785
     0.7972   0.8267   0.8964   0.9138   0.9606   0.9946   1.0260   1.0486
     1.0966   1.1149   1.1478   1.1580   1.2073   1.2224   1.2419   1.2925
     1.3027   1.3650   1.3837   1.4087   1.4492   1.4772   1.5166   1.5475
     1.5650   1.6189   1.6265   1.6552   1.6913   1.7179   1.7322   1.7666
     1.7974   1.8176   1.8815   1.9012   1.9290   1.9606   1.9753   2.0039
     2.0358   2.0524   2.1058   2.1358   2.1544   2.2217   2.2509   2.2851
     2.3077   2.3313   2.3891   2.4109   2.4169   2.4649   2.4862   2.5116
     2.5244   2.5449   2.5621   2.5972   2.6238   2.6656   2.6819   2.7138
     2.7232   2.7528   2.7690   2.7935   2.8036   2.8433   2.8603   2.8943
     2.9190   2.9356   2.9796   2.9954   3.0016   3.0260   3.0592   3.0710
     3.1143   3.1330   3.1681   3.1775   3.2104   3.2453   3.2897   3.2906
     3.3068   3.3449   3.3729   3.3877   3.4081   3.4395   3.4600   3.4923
     3.5263   3.5544   3.5718   3.6024   3.6238   3.6436   3.6686   3.6822
     3.7015   3.7194   3.7430   3.7909   3.8059   3.8472   3.8758   3.8932
     3.9111   3.9446   3.9496   3.9993   4.0081   4.0297   4.0429   4.0713
     4.0959   4.1237   4.1402   4.1736   4.2068   4.2314   4.2465   4.2734
     4.2981   4.3231   4.3347   4.3644   4.3831   4.3995   4.4307   4.4446
     4.4620   4.4844   4.5021   4.5336   4.5590   4.5703   4.5973   4.6120
     4.6363   4.6623   4.6830   4.7020   4.7374   4.7577   4.7896   4.8105
     4.8366   4.8463   4.8776   4.9131   4.9249   4.9482   4.9697   4.9817
     5.0053   5.0290   5.0425   5.0621   5.0785   5.1018   5.1149   5.1423
     5.1724   5.2011   5.2255   5.2281   5.2506   5.2634   5.2811   5.3030
     5.3211   5.3389   5.3536   5.3898   5.4059   5.4167   5.4500   5.4597
     5.4780   5.5057   5.5281   5.5367   5.5688   5.5780   5.5952   5.6345
     5.6435   5.6599   5.6935   5.7018   5.7283   5.7451   5.7747   5.8115
     5.8264   5.8467   5.8729   5.9051   5.9302   5.9444   5.9605   5.9730
     6.0020   6.0440   6.0585   6.0712   6.0966   6.1135   6.1374   6.1558
     6.1775   6.2221   6.2414   6.2593   6.2797   6.2901   6.3330   6.3535
     6.3747   6.3950   6.4115   6.4294   6.4625   6.4907   6.5064   6.5365
     6.5459   6.5613   6.5850   6.6032   6.6225   6.6441   6.6694   6.7043
     6.7163   6.7337   6.7547   6.7785   6.7829   6.7980   6.8203   6.8322
     6.8602   6.8864   6.9098   6.9196   6.9381   6.9630   6.9778   7.0150
     7.0255   7.0383   7.0621   7.0763   7.0889   7.1142   7.1391   7.1534
     7.1749   7.1814   7.2212   7.2395   7.2657   7.2762   7.3003   7.3124
     7.3329   7.3562   7.3834   7.4074   7.4294   7.4431   7.4659   7.4812
     7.4899   7.5240   7.5375   7.5530   7.5732   7.5889   7.6054   7.6327
     7.6498   7.6603   7.6932   7.6994   7.7091   7.7353   7.7524   7.7796
     7.7931   7.8209   7.8420   7.8529   7.8728   7.8842   7.9076   7.9161
     7.9514   7.9843   7.9996   8.0293   8.0511   8.0623   8.0799   8.0977
     8.1249   8.1608   8.1688   8.1905   8.2029   8.2188   8.2357   8.2522
     8.2667   8.2810   8.3023   8.3101   8.3470   8.3827   8.3980   8.4054
     8.4186   8.4388   8.4509   8.4637   8.4840   8.4953   8.5086   8.5172
     8.5410   8.5610   8.5744   8.5868   8.6085   8.6321   8.6417   8.6776
     8.6863   8.6985   8.7079   8.7402   8.7791   8.7862   8.8017   8.8252
     8.8413   8.8491   8.8804   8.9151   8.9301   8.9551   8.9750   8.9942
     9.0224   9.0421   9.0517   9.0721   9.0834   9.1045   9.1371   9.1595
     9.1766   9.1801   9.2047   9.2159   9.2305

          k =-0.2500-0.2500 0.2500 ( 99252 PWs)   bands (ev):

    -3.6033  -3.4252  -3.3322  -3.1822  -3.1408  -3.0546  -2.9460  -2.8033
    -2.7688  -2.7227  -2.7042  -2.6307  -2.5327  -2.5013  -2.4773  -2.4084
    -2.3024  -2.1957  -2.1266  -2.0550  -2.0379  -1.9863  -1.9411  -1.9113
    -1.8369  -1.7491  -1.6835  -1.6356  -1.5986  -1.5458  -1.5088  -1.4886
    -1.4088  -1.3854  -1.3216  -1.2750  -1.2518  -1.1883  -1.1018  -1.0332
    -1.0156  -0.9807  -0.9380  -0.9010  -0.8391  -0.8047  -0.7436  -0.7088
    -0.7049  -0.6741  -0.6235  -0.5551  -0.5180  -0.4593  -0.4282  -0.3844
    -0.3529  -0.3275  -0.3112  -0.2501  -0.2127  -0.1812  -0.1391  -0.0963
    -0.0234  -0.0033   0.0279   0.0471   0.0833   0.1264   0.1729   0.2376
     0.2439   0.3005   0.3413   0.3706   0.4131   0.4278   0.4754   0.4945
     0.5160   0.5605   0.5851   0.6364   0.6739   0.7161   0.7628   0.7938
     0.8434   0.8676   0.8869   0.9066   0.9867   1.0077   1.0359   1.0480
     1.0850   1.0911   1.1309   1.1908   1.2150   1.2423   1.2608   1.2887
     1.3108   1.3581   1.3735   1.4293   1.4469   1.4691   1.5151   1.5303
     1.5824   1.5909   1.6290   1.6468   1.7105   1.7272   1.7556   1.7755
     1.8198   1.8287   1.8784   1.9057   1.9240   1.9641   1.9968   2.0102
     2.0270   2.0533   2.1060   2.1477   2.1703   2.1997   2.2514   2.2829
     2.3100   2.3288   2.3702   2.3808   2.4084   2.4337   2.4614   2.4905
     2.5022   2.5124   2.5476   2.5758   2.6084   2.6479   2.6684   2.6812
     2.7142   2.7490   2.7660   2.7894   2.8157   2.8439   2.8809   2.9092
     2.9299   2.9481   2.9707   2.9876   3.0116   3.0354   3.0549   3.0819
     3.1197   3.1464   3.1737   3.1954   3.2288   3.2544   3.2794   3.3087
     3.3234   3.3587   3.3823   3.3959   3.4303   3.4651   3.4851   3.5049
     3.5219   3.5494   3.5728   3.5876   3.6086   3.6447   3.6745   3.6886
     3.7275   3.7445   3.7707   3.8049   3.8319   3.8479   3.8789   3.8915
     3.9126   3.9263   3.9695   3.9885   4.0109   4.0204   4.0529   4.0669
     4.0931   4.1333   4.1460   4.1758   4.1975   4.2168   4.2347   4.2609
     4.2858   4.2884   4.3032   4.3204   4.3602   4.3853   4.4044   4.4270
     4.4561   4.4831   4.5080   4.5320   4.5386   4.5750   4.5999   4.6300
     4.6540   4.6716   4.7022   4.7148   4.7235   4.7560   4.7897   4.8106
     4.8323   4.8503   4.8849   4.8992   4.9256   4.9360   4.9578   4.9867
     5.0177   5.0423   5.0571   5.0682   5.0946   5.1018   5.1235   5.1528
     5.1690   5.1851   5.2003   5.2109   5.2438   5.2526   5.2808   5.2900
     5.3151   5.3288   5.3514   5.3670   5.4011   5.4245   5.4490   5.4574
     5.4687   5.4973   5.5105   5.5370   5.5596   5.5793   5.5866   5.6105
     5.6541   5.6750   5.6889   5.7052   5.7371   5.7590   5.7885   5.8060
     5.8370   5.8469   5.8580   5.9001   5.9425   5.9550   5.9801   6.0000
     6.0165   6.0376   6.0609   6.0897   6.1057   6.1255   6.1567   6.1792
     6.1877   6.2204   6.2472   6.2608   6.2991   6.3181   6.3415   6.3665
     6.3838   6.3980   6.4229   6.4449   6.4623   6.4800   6.4971   6.5220
     6.5404   6.5516   6.6030   6.6169   6.6386   6.6501   6.6744   6.6840
     6.7101   6.7192   6.7466   6.7610   6.7728   6.8155   6.8342   6.8598
     6.8817   6.9064   6.9235   6.9394   6.9500   6.9610   6.9871   7.0095
     7.0275   7.0405   7.0686   7.0838   7.1025   7.1176   7.1329   7.1478
     7.1551   7.1797   7.1967   7.2170   7.2388   7.2603   7.2822   7.3123
     7.3295   7.3446   7.3613   7.3722   7.3932   7.4042   7.4411   7.4581
     7.4697   7.4923   7.5110   7.5209   7.5672   7.5784   7.5862   7.5970
     7.6329   7.6478   7.6712   7.6978   7.7112   7.7300   7.7484   7.7911
     7.7940   7.8243   7.8327   7.8645   7.8803   7.9215   7.9402   7.9563
     7.9722   7.9885   8.0135   8.0349   8.0476   8.0699   8.0752   8.1119
     8.1193   8.1593   8.1616   8.1725   8.1900   8.2114   8.2486   8.2640
     8.2776   8.2916   8.3218   8.3305   8.3454   8.3619   8.3767   8.3941
     8.4051   8.4319   8.4496   8.4625   8.4828   8.5074   8.5197   8.5335
     8.5471   8.5744   8.5980   8.6147   8.6189   8.6381   8.6790   8.6873
     8.7181   8.7338   8.7529   8.7652   8.7793   8.7906   8.8100   8.8379
     8.8570   8.8778   8.8991   8.9213   8.9410   8.9596   8.9775   8.9992
     9.0134   9.0191   9.0352   9.0518   9.0647   9.0976   9.1150   9.1333
     9.1557   9.1870   9.2061   9.2199   9.2296

          k =-0.2500 0.2500-0.2500 ( 99252 PWs)   bands (ev):

    -3.6035  -3.4285  -3.3191  -3.2169  -3.1155  -3.0252  -2.9345  -2.8873
    -2.8237  -2.6845  -2.6488  -2.5936  -2.5481  -2.5203  -2.4487  -2.3609
    -2.3153  -2.2369  -2.1543  -2.1263  -2.0596  -1.9971  -1.8799  -1.8368
    -1.7912  -1.7384  -1.6932  -1.6734  -1.6410  -1.5725  -1.5307  -1.4953
    -1.3967  -1.3716  -1.3320  -1.2556  -1.1888  -1.1486  -1.1220  -1.0705
    -1.0406  -0.9633  -0.9111  -0.8875  -0.8303  -0.8057  -0.7633  -0.7453
    -0.6873  -0.6510  -0.6307  -0.5735  -0.5494  -0.5028  -0.4356  -0.3603
    -0.3420  -0.3219  -0.2653  -0.2345  -0.1985  -0.1875  -0.1554  -0.1277
    -0.0843  -0.0168   0.0044   0.0449   0.1089   0.1533   0.1956   0.2288
     0.2616   0.3163   0.3248   0.3653   0.4105   0.4417   0.4833   0.4916
     0.5554   0.5785   0.6222   0.6473   0.6776   0.7106   0.7306   0.7977
     0.8351   0.8583   0.9037   0.9325   0.9605   0.9729   1.0085   1.0448
     1.0553   1.0854   1.1460   1.1884   1.2050   1.2418   1.2580   1.2926
     1.3094   1.3443   1.3799   1.4144   1.4813   1.4897   1.5020   1.5439
     1.5771   1.5843   1.6238   1.6665   1.6753   1.7515   1.7696   1.7934
     1.8178   1.8475   1.8733   1.9056   1.9320   1.9528   1.9717   1.9995
     2.0413   2.0999   2.1139   2.1453   2.1684   2.1916   2.2348   2.2483
     2.2758   2.3119   2.3499   2.3860   2.4063   2.4409   2.4550   2.4674
     2.5219   2.5428   2.5692   2.5907   2.6147   2.6272   2.6555   2.6981
     2.7174   2.7328   2.7699   2.8095   2.8179   2.8339   2.8578   2.8965
     2.9174   2.9463   2.9622   2.9961   3.0198   3.0549   3.0660   3.0814
     3.1354   3.1561   3.1753   3.2131   3.2217   3.2599   3.2779   3.3080
     3.3310   3.3383   3.3649   3.3925   3.4189   3.4498   3.4684   3.4982
     3.5493   3.5606   3.5750   3.5946   3.6148   3.6398   3.6781   3.7063
     3.7253   3.7577   3.7892   3.8065   3.8333   3.8585   3.8840   3.9088
     3.9358   3.9546   3.9655   3.9918   4.0193   4.0391   4.0601   4.0670
     4.1002   4.1228   4.1476   4.1768   4.1909   4.2074   4.2368   4.2579
     4.2772   4.2977   4.3313   4.3375   4.3645   4.3744   4.4111   4.4222
     4.4430   4.4685   4.4920   4.5112   4.5317   4.5416   4.5629   4.5775
     4.5987   4.6376   4.6831   4.7178   4.7363   4.7545   4.7787   4.7954
     4.8275   4.8497   4.8529   4.8870   4.9050   4.9216   4.9507   4.9741
     5.0100   5.0345   5.0608   5.0767   5.0898   5.1202   5.1307   5.1439
     5.1528   5.1809   5.2107   5.2320   5.2507   5.2692   5.2931   5.3089
     5.3191   5.3503   5.3578   5.3731   5.3871   5.4165   5.4437   5.4672
     5.4909   5.5153   5.5299   5.5405   5.5891   5.6012   5.6097   5.6359
     5.6600   5.6741   5.6986   5.7398   5.7462   5.7819   5.8044   5.8290
     5.8515   5.8736   5.8822   5.9161   5.9293   5.9498   5.9696   5.9914
     6.0240   6.0353   6.0669   6.0797   6.0971   6.1042   6.1286   6.1544
     6.2066   6.2226   6.2312   6.2545   6.2823   6.3125   6.3360   6.3525
     6.3674   6.4036   6.4232   6.4475   6.4578   6.4780   6.5050   6.5391
     6.5626   6.5769   6.5876   6.6014   6.6152   6.6356   6.6521   6.6848
     6.7104   6.7358   6.7421   6.7675   6.7910   6.8130   6.8375   6.8541
     6.8659   6.8786   6.8951   6.9099   6.9546   6.9732   6.9847   7.0007
     7.0311   7.0414   7.0716   7.0838   7.1080   7.1159   7.1345   7.1531
     7.1781   7.2022   7.2102   7.2169   7.2333   7.2533   7.2781   7.2933
     7.3295   7.3456   7.3639   7.3731   7.3928   7.4047   7.4266   7.4607
     7.4768   7.4983   7.5107   7.5325   7.5431   7.5637   7.5820   7.6062
     7.6284   7.6348   7.6591   7.6795   7.7382   7.7442   7.7678   7.7821
     7.7972   7.8177   7.8359   7.8549   7.8782   7.8910   7.9226   7.9501
     7.9759   7.9991   8.0103   8.0298   8.0443   8.0744   8.0979   8.1129
     8.1290   8.1486   8.1615   8.1857   8.2008   8.2161   8.2335   8.2449
     8.2672   8.2845   8.3027   8.3144   8.3274   8.3627   8.3793   8.3949
     8.3998   8.4225   8.4562   8.4709   8.4926   8.5093   8.5262   8.5352
     8.5628   8.5788   8.5822   8.6130   8.6336   8.6495   8.6720   8.6862
     8.7033   8.7163   8.7315   8.7597   8.7684   8.8112   8.8192   8.8370
     8.8582   8.8780   8.8971   8.9095   8.9468   8.9609   8.9863   9.0062
     9.0289   9.0444   9.0630   9.0823   9.0945   9.1103   9.1399   9.1558
     9.1664   9.1856   9.2057   9.2165   9.2300

          k = 0.2500-0.2500-0.2500 ( 99252 PWs)   bands (ev):

    -3.6036  -3.4179  -3.3462  -3.1742  -3.1497  -3.0251  -2.9288  -2.8688
    -2.8120  -2.7069  -2.6660  -2.5915  -2.5369  -2.5182  -2.4547  -2.3854
    -2.3270  -2.2394  -2.1415  -2.0763  -2.0239  -1.9764  -1.9237  -1.8825
    -1.8355  -1.7156  -1.6910  -1.6666  -1.6343  -1.5676  -1.5128  -1.4542
    -1.3920  -1.3680  -1.3017  -1.2616  -1.2306  -1.1924  -1.1087  -1.0674
    -1.0504  -0.9958  -0.9364  -0.9209  -0.8579  -0.8057  -0.7593  -0.7029
    -0.6885  -0.6520  -0.6000  -0.5522  -0.5014  -0.4735  -0.4490  -0.4102
    -0.3492  -0.3080  -0.2550  -0.2310  -0.2151  -0.1627  -0.1416  -0.0891
    -0.0503  -0.0018   0.0098   0.0552   0.0985   0.1346   0.1960   0.2214
     0.2297   0.2793   0.3014   0.3186   0.3920   0.4242   0.4572   0.5091
     0.5330   0.5795   0.6141   0.6525   0.6922   0.7416   0.7640   0.7859
     0.8113   0.8388   0.8936   0.9120   0.9741   1.0058   1.0298   1.0717
     1.1131   1.1304   1.1685   1.1763   1.2112   1.2301   1.2428   1.2823
     1.3273   1.3436   1.3720   1.4134   1.4472   1.4745   1.4885   1.5194
     1.5648   1.5966   1.6355   1.6620   1.6901   1.7309   1.7571   1.7908
     1.8013   1.8419   1.8686   1.9261   1.9482   1.9586   1.9893   2.0129
     2.0231   2.0683   2.0819   2.1302   2.1614   2.2100   2.2296   2.2657
     2.3027   2.3144   2.3429   2.3791   2.4053   2.4251   2.4611   2.4976
     2.5192   2.5450   2.5681   2.6112   2.6177   2.6488   2.6948   2.7183
     2.7507   2.7694   2.7921   2.7961   2.8297   2.8412   2.8760   2.9032
     2.9110   2.9440   2.9732   2.9908   3.0094   3.0513   3.0670   3.0856
     3.0943   3.1322   3.1481   3.1859   3.1914   3.2337   3.2608   3.2955
     3.3127   3.3309   3.3569   3.3859   3.4215   3.4390   3.4578   3.4889
     3.5306   3.5511   3.5813   3.5974   3.6298   3.6512   3.6761   3.6925
     3.7126   3.7613   3.7712   3.7775   3.8190   3.8414   3.8710   3.8894
     3.9067   3.9336   3.9530   3.9897   3.9982   4.0347   4.0718   4.1028
     4.1149   4.1473   4.1657   4.1927   4.1982   4.2182   4.2446   4.2702
     4.2991   4.3239   4.3400   4.3483   4.3685   4.3804   4.4049   4.4300
     4.4598   4.4633   4.5089   4.5391   4.5610   4.5839   4.6000   4.6174
     4.6352   4.6655   4.6892   4.7224   4.7326   4.7557   4.7771   4.7869
     4.8260   4.8403   4.8689   4.8957   4.9157   4.9275   4.9576   4.9746
     4.9930   5.0233   5.0396   5.0605   5.0903   5.1085   5.1359   5.1512
     5.1639   5.1729   5.1987   5.2227   5.2432   5.2727   5.2792   5.3068
     5.3148   5.3294   5.3665   5.3763   5.4050   5.4234   5.4341   5.4628
     5.4778   5.5157   5.5420   5.5562   5.5627   5.5917   5.6106   5.6502
     5.6664   5.6850   5.6952   5.7042   5.7310   5.7450   5.7751   5.7976
     5.8226   5.8367   5.8535   5.8771   5.9019   5.9398   5.9657   5.9942
     6.0055   6.0319   6.0591   6.0771   6.0881   6.1170   6.1357   6.1656
     6.1813   6.2038   6.2389   6.2497   6.2776   6.2975   6.3162   6.3548
     6.3839   6.3936   6.4388   6.4597   6.4754   6.4861   6.5033   6.5228
     6.5389   6.5755   6.6011   6.6257   6.6419   6.6666   6.6928   6.7021
     6.7300   6.7458   6.7605   6.7762   6.7925   6.8159   6.8383   6.8491
     6.8724   6.8940   6.9135   6.9236   6.9318   6.9646   6.9895   7.0058
     7.0223   7.0394   7.0530   7.0698   7.0876   7.1164   7.1224   7.1641
     7.1779   7.1892   7.2086   7.2228   7.2508   7.2635   7.2826   7.3046
     7.3200   7.3439   7.3771   7.3843   7.3975   7.4201   7.4398   7.4543
     7.4947   7.5059   7.5320   7.5415   7.5774   7.5855   7.6146   7.6320
     7.6355   7.6615   7.6702   7.6919   7.7120   7.7280   7.7474   7.7765
     7.7960   7.8285   7.8466   7.8652   7.8760   7.9111   7.9407   7.9525
     7.9880   7.9951   8.0048   8.0166   8.0326   8.0521   8.0774   8.0867
     8.1009   8.1246   8.1581   8.1755   8.2048   8.2276   8.2486   8.2529
     8.2737   8.2930   8.3004   8.3224   8.3339   8.3564   8.3727   8.3903
     8.4025   8.4205   8.4443   8.4629   8.4739   8.4987   8.5157   8.5299
     8.5447   8.5629   8.5810   8.6013   8.6303   8.6453   8.6635   8.6860
     8.7058   8.7246   8.7427   8.7611   8.7802   8.8051   8.8226   8.8427
     8.8685   8.8829   8.9120   8.9191   8.9313   8.9434   8.9764   8.9967
     9.0003   9.0244   9.0434   9.0632   9.0756   9.0979   9.1280   9.1381
     9.1669   9.1909   9.2053   9.2221   9.2380

     the Fermi energy is     7.7898 ev

!    total energy              =  -10103.49580559 Ry
     Harris-Foulkes estimate   =  -10103.49580560 Ry
     estimated scf accuracy    <       0.00000007 Ry

     total all-electron energy =   -124316.047943 Ry

     The total energy is the sum of the following terms:

     one-electron contribution =     749.08489512 Ry
     hartree contribution      =      33.55730578 Ry
     xc contribution           =    -783.88976385 Ry
     ewald contribution        =   -1332.98561553 Ry
     one-center paw contrib.   =   -8769.24182255 Ry
     smearing contrib. (-TS)   =      -0.02080456 Ry

     convergence has been achieved in  11 iterations

     Forces acting on atoms (Ry/au):

     atom    1 type  1   force =     0.01108826    0.12083073    0.06945228
     atom    2 type  1   force =    -0.25316393   -0.03132153   -0.29034547
     atom    3 type  1   force =    -0.04287001    0.02387001    0.04040768
     atom    4 type  1   force =    -0.00859443    0.00357666    0.01483177
     atom    5 type  1   force =     0.07681839   -0.01691992   -0.01374917
     atom    6 type  1   force =     0.27244180    0.00946627    0.27038062
     atom    7 type  1   force =    -0.02478400   -0.00895469   -0.02525041
     atom    8 type  1   force =     0.04531737    0.02847358   -0.06217511
     atom    9 type  1   force =     0.06318647   -0.06265412   -0.02268488
     atom   10 type  1   force =     0.00025864   -0.01966875   -0.05939084
     atom   11 type  1   force =    -0.06602053    0.02342340   -0.05801625
     atom   12 type  1   force =     0.00703717    0.00884159    0.03584637
     atom   13 type  1   force =     0.14545809    0.08314112    0.08991224
     atom   14 type  1   force =    -0.13415848   -0.09240762    0.08975063
     atom   15 type  1   force =    -0.17766448    0.13408188   -0.02197642
     atom   16 type  1   force =     0.00434350    0.02443257   -0.05708356
     atom   17 type  1   force =     0.05257456    0.01660174   -0.01297477
     atom   18 type  1   force =     0.03387502    0.03071473    0.07410889
     atom   19 type  1   force =    -0.08304012    0.05719749   -0.00570513
     atom   20 type  1   force =    -0.03849367   -0.01431499    0.02643215
     atom   21 type  1   force =     0.02254845    0.01475223   -0.03062939
     atom   22 type  1   force =     0.01674886    0.02891375   -0.02916600
     atom   23 type  1   force =     0.06405724   -0.04109420    0.04723166
     atom   24 type  1   force =    -0.04997586    0.16729921   -0.08011718
     atom   25 type  1   force =     0.09681826   -0.05660966    0.18974167
     atom   26 type  1   force =     0.05265709    0.01991759   -0.04671959
     atom   27 type  1   force =     0.02521007    0.00216095   -0.05626811
     atom   28 type  1   force =    -0.25129460    0.03458508   -0.21372132
     atom   29 type  1   force =    -0.06010335   -0.09977967    0.02726495
     atom   30 type  1   force =     0.24396873    0.06492449    0.25640441
     atom   31 type  1   force =     0.02192611   -0.11086365   -0.13299086
     atom   32 type  1   force =     0.06933167    0.12770465   -0.05667572
     atom   33 type  1   force =     0.01910560   -0.05148156    0.12359397
     atom   34 type  1   force =     0.01525811    0.06644345    0.14187096
     atom   35 type  1   force =    -0.04341971    0.08000217    0.00750158
     atom   36 type  1   force =    -0.00206740   -0.06103850    0.01920428
     atom   37 type  1   force =     0.06051727    0.00566161    0.01649686
     atom   38 type  1   force =     0.05551304    0.04926653    0.09322960
     atom   39 type  1   force =     0.00504411   -0.01623044    0.02325252
     atom   40 type  1   force =     0.01405539   -0.11939064    0.01467538
     atom   41 type  1   force =     0.04855627   -0.09721925   -0.02271016
     atom   42 type  1   force =    -0.09259220    0.01065825    0.05099183
     atom   43 type  1   force =    -0.06645399    0.00288978    0.00171158
     atom   44 type  1   force =     0.01368094    0.00063636    0.05935337
     atom   45 type  1   force =    -0.04812438    0.03783596    0.02061810
     atom   46 type  1   force =    -0.14755000    0.09426147   -0.03819081
     atom   47 type  1   force =     0.12526364    0.00725459   -0.11603242
     atom   48 type  1   force =    -0.05455551    0.13750298   -0.08459863
     atom   49 type  1   force =    -0.07442900   -0.03495214    0.12472943
     atom   50 type  1   force =    -0.10222108   -0.00071740   -0.13048573
     atom   51 type  1   force =     0.01180445   -0.11667426   -0.06200692
     atom   52 type  1   force =     0.00154307    0.05025212    0.01898681
     atom   53 type  1   force =     0.01471448    0.10360240   -0.04385765
     atom   54 type  1   force =     0.00858889    0.05770029    0.05237367
     atom   55 type  1   force =    -0.28940389   -0.14022141   -0.00922002
     atom   56 type  1   force =    -0.05287902    0.00936893    0.01250540
     atom   57 type  1   force =    -0.05554707   -0.03252927    0.05919082
     atom   58 type  1   force =     0.07486592    0.11278174    0.06672924
     atom   59 type  1   force =    -0.11187181    0.10954884    0.02312653
     atom   60 type  1   force =     0.08857057   -0.13919484   -0.09025221
     atom   61 type  1   force =    -0.03271563   -0.04729711    0.01010716
     atom   62 type  1   force =    -0.09700500    0.06388008   -0.08682263
     atom   63 type  1   force =    -0.07648686   -0.04376065    0.07098566
     atom   64 type  1   force =     0.02166875    0.00658061    0.04475139
     atom   65 type  1   force =    -0.05893879   -0.05895767   -0.09035643
     atom   66 type  1   force =    -0.07841254    0.05720152   -0.03765696
     atom   67 type  1   force =     0.05861825   -0.07209780   -0.03479330
     atom   68 type  1   force =     0.17329038    0.03043432   -0.11075865
     atom   69 type  1   force =    -0.23599506    0.18748925    0.02765326
     atom   70 type  1   force =     0.01143043   -0.09229596    0.01533600
     atom   71 type  1   force =     0.07836673    0.02358758   -0.01241001
     atom   72 type  1   force =     0.07295308    0.00603633   -0.05609992
     atom   73 type  1   force =     0.01011712    0.06410647   -0.01962230
     atom   74 type  1   force =     0.02648091    0.03026905   -0.10132813
     atom   75 type  1   force =     0.03486917   -0.09219476    0.07590416
     atom   76 type  1   force =    -0.06402647   -0.07601255    0.11161099
     atom   77 type  1   force =     0.07667410    0.12406700   -0.08408591
     atom   78 type  1   force =    -0.09974202    0.02627406    0.02213175
     atom   79 type  1   force =    -0.02043706   -0.00889697   -0.00890596
     atom   80 type  1   force =     0.06954079   -0.08531168    0.01839568
     atom   81 type  1   force =    -0.00276395    0.00865251    0.01534518
     atom   82 type  1   force =    -0.15462731   -0.09950330   -0.00572899
     atom   83 type  1   force =     0.00518904    0.06245840   -0.07238049
     atom   84 type  1   force =     0.00130228    0.00314096    0.01138589
     atom   85 type  1   force =    -0.03790567   -0.00050248   -0.00175571
     atom   86 type  1   force =    -0.01677710   -0.15574762   -0.10019269
     atom   87 type  1   force =    -0.01419825    0.04838343    0.05507527
     atom   88 type  1   force =     0.03147349    0.00978288   -0.02456784
     atom   89 type  1   force =    -0.02110437    0.13857808   -0.11114182
     atom   90 type  1   force =     0.02026843   -0.04221991   -0.08687895
     atom   91 type  1   force =     0.08228302    0.02978911    0.08575634
     atom   92 type  1   force =    -0.14856951   -0.09935979   -0.06952402
     atom   93 type  1   force =     0.02452331    0.01784327   -0.02260177
     atom   94 type  1   force =     0.15645107   -0.16474859   -0.02037496
     atom   95 type  1   force =    -0.17149379   -0.17604663   -0.00467755
     atom   96 type  1   force =    -0.03845526   -0.00670930    0.05144228
     atom   97 type  1   force =     0.05078976   -0.04744523    0.06587463
     atom   98 type  1   force =    -0.10753830    0.00823037   -0.07457013
     atom   99 type  1   force =    -0.03893747   -0.06937818   -0.09884627
     atom  100 type  1   force =     0.17669310   -0.14038297   -0.08959580
     atom  101 type  1   force =    -0.00176421   -0.03777625   -0.10985603
     atom  102 type  1   force =    -0.04713254    0.15565826    0.06441661
     atom  103 type  1   force =     0.02477890    0.07241600    0.20959877
     atom  104 type  1   force =     0.09615113   -0.12905913    0.11316502
     atom  105 type  1   force =     0.10801156   -0.11578077   -0.01070753
     atom  106 type  1   force =     0.01322987   -0.01250087    0.00389049
     atom  107 type  1   force =     0.06191724    0.17872181    0.01896533
     atom  108 type  1   force =     0.06351371    0.01685859    0.08887449
     atom  109 type  1   force =    -0.14240999    0.14643390   -0.03998575
     atom  110 type  1   force =    -0.05079518   -0.00031781    0.00033920
     atom  111 type  1   force =     0.05346589    0.06049827    0.10812766
     atom  112 type  1   force =     0.12753343    0.04798931    0.05139627
     atom  113 type  1   force =    -0.03465688    0.01520374    0.02220228
     atom  114 type  1   force =    -0.03703485   -0.03461670   -0.00859072
     atom  115 type  1   force =    -0.25439542   -0.22811031   -0.04791576
     atom  116 type  1   force =     0.23074158    0.21127266   -0.01541374
     atom  117 type  1   force =     0.00403146    0.09643193   -0.06968181
     atom  118 type  1   force =     0.15173317   -0.14643505    0.00667666
     atom  119 type  1   force =    -0.33979892   -0.19526289    0.16255966
     atom  120 type  1   force =    -0.04588610   -0.09533666    0.03660151
     atom  121 type  1   force =     0.08835836   -0.09720735   -0.06668957
     atom  122 type  1   force =     0.07579461    0.02187948   -0.01446274
     atom  123 type  1   force =    -0.07026691   -0.01474118    0.06059137
     atom  124 type  1   force =     0.20056225   -0.19439228    0.08678335
     atom  125 type  1   force =     0.10299429   -0.04068478   -0.00430285
     atom  126 type  1   force =    -0.13673892   -0.04463229    0.06572305
     atom  127 type  1   force =    -0.00990955    0.01144056   -0.02265394
     atom  128 type  1   force =     0.09219798   -0.11157016    0.08341069
     atom  129 type  1   force =    -0.02349623    0.03393829   -0.02550789
     atom  130 type  1   force =     0.08808737   -0.09949501    0.02098203
     atom  131 type  1   force =    -0.01074467    0.03933926    0.09566765
     atom  132 type  1   force =    -0.00331396   -0.06604623    0.06732261
     atom  133 type  1   force =    -0.00961622   -0.00170463    0.02592432
     atom  134 type  1   force =    -0.01091421   -0.00495077   -0.04534119
     atom  135 type  1   force =    -0.06353204    0.03707345    0.03127682
     atom  136 type  1   force =    -0.02115166   -0.00818745   -0.03728313
     atom  137 type  1   force =    -0.00067237   -0.01813696    0.01351962
     atom  138 type  1   force =     0.11486121   -0.17315746   -0.02837326
     atom  139 type  1   force =    -0.03336319    0.13466431   -0.20872440
     atom  140 type  1   force =     0.05441657   -0.03062792   -0.06455031
     atom  141 type  1   force =     0.03416605    0.05730568    0.06087425
     atom  142 type  1   force =    -0.16740724    0.16972953    0.04415863
     atom  143 type  1   force =    -0.07452563   -0.00436956   -0.06174216
     atom  144 type  1   force =     0.02690124    0.01039545    0.01761322
     atom  145 type  1   force =    -0.06863859    0.14499050   -0.06501194
     atom  146 type  1   force =     0.01735029   -0.01594803   -0.01865186
     atom  147 type  1   force =     0.01143064    0.00589203   -0.01003984
     atom  148 type  1   force =     0.02066985   -0.01096432    0.05589341
     atom  149 type  1   force =    -0.04137145   -0.01633666   -0.06878921
     atom  150 type  1   force =    -0.09211651   -0.03518648    0.01094584
     atom  151 type  1   force =    -0.00025052    0.02992498    0.09458563
     atom  152 type  1   force =    -0.01444392   -0.01636851   -0.01829910
     atom  153 type  1   force =    -0.08329397    0.12229236   -0.00831517
     atom  154 type  1   force =     0.01707910   -0.03188134   -0.01434385
     atom  155 type  1   force =     0.00751984    0.04396696    0.09876748
     atom  156 type  1   force =     0.01692279   -0.05381679   -0.03763143
     atom  157 type  1   force =     0.01149718    0.00620668    0.04790365
     atom  158 type  1   force =    -0.02077211    0.02372071    0.00082598
     atom  159 type  1   force =    -0.14418499    0.11555184   -0.01722869
     atom  160 type  1   force =     0.20092080    0.16061140    0.00244813
     atom  161 type  1   force =     0.13395129    0.07182549   -0.02406422
     atom  162 type  1   force =    -0.13443300    0.04684546    0.09386196
     atom  163 type  1   force =    -0.00537157    0.05550773   -0.03030716
     atom  164 type  1   force =     0.09436589   -0.10383337    0.19146829
     atom  165 type  1   force =     0.13761225   -0.04805788   -0.00662986
     atom  166 type  1   force =    -0.02364672    0.02806048   -0.06445595
     atom  167 type  1   force =    -0.11641032    0.06538072    0.08493072
     atom  168 type  1   force =    -0.02230958   -0.13639517   -0.03744888
     atom  169 type  1   force =    -0.02994096    0.07239931    0.02404272
     atom  170 type  1   force =    -0.03590187   -0.04036712   -0.10440447
     atom  171 type  1   force =     0.03456128    0.02993960    0.00194443
     atom  172 type  1   force =    -0.07041959   -0.07423030    0.03658977
     atom  173 type  1   force =     0.02415406    0.01481949    0.04480810
     atom  174 type  1   force =    -0.10140430   -0.09591402    0.08062442
     atom  175 type  1   force =    -0.20393767   -0.16232561    0.04254562
     atom  176 type  1   force =    -0.00813950   -0.02836043   -0.03024363
     atom  177 type  1   force =    -0.04457749    0.09634501   -0.17993429
     atom  178 type  1   force =    -0.00302661    0.35580201   -0.37424807
     atom  179 type  1   force =     0.09390524   -0.35912480    0.42970705
     atom  180 type  1   force =     0.25362891    0.24128452    0.02223009
     atom  181 type  1   force =     0.18868321   -0.09189853   -0.26022550
     atom  182 type  1   force =     0.01680837   -0.04558869    0.01345152
     atom  183 type  1   force =     0.00816400    0.09380078    0.00961257
     atom  184 type  1   force =     0.18118567    0.32797673    0.10951014
     atom  185 type  1   force =     0.04062940    0.09575104    0.00830684
     atom  186 type  1   force =     0.00788757   -0.03547143   -0.01682403
     atom  187 type  1   force =    -0.03441413    0.15636386   -0.00423683
     atom  188 type  1   force =     0.08509702   -0.02742562   -0.09972796
     atom  189 type  1   force =     0.00978384    0.03295916   -0.02676805
     atom  190 type  1   force =    -0.03624465   -0.19344791    0.19518855
     atom  191 type  1   force =     0.00879392    0.02165631    0.02804590
     atom  192 type  1   force =     0.02228012   -0.00851092    0.00096203
     atom  193 type  1   force =     0.12012508    0.03304215   -0.01488116
     atom  194 type  1   force =     0.10805977   -0.07233443   -0.10324335
     atom  195 type  1   force =    -0.03487428   -0.07450365   -0.05922452
     atom  196 type  1   force =    -0.11047696   -0.02776460    0.10786568
     atom  197 type  1   force =     0.04717706    0.04948486   -0.09665604
     atom  198 type  1   force =    -0.07699710   -0.00372676    0.08236481
     atom  199 type  1   force =    -0.16725261    0.13538682   -0.10330662
     atom  200 type  1   force =    -0.06727536   -0.08729646   -0.13203439
     atom  201 type  1   force =    -0.05292235    0.01996540   -0.00837189
     atom  202 type  1   force =     0.12626054   -0.07593012    0.07291627
     atom  203 type  1   force =    -0.06912868   -0.01745161    0.05536797
     atom  204 type  1   force =     0.02857697    0.00626779   -0.03095690
     atom  205 type  1   force =     0.19194960   -0.08460233    0.04305844
     atom  206 type  1   force =    -0.01062699   -0.03021405    0.04100368
     atom  207 type  1   force =    -0.01818742    0.11770120    0.05688492
     atom  208 type  1   force =     0.08431256   -0.16825282    0.00877869
     atom  209 type  1   force =    -0.04722762    0.01393037    0.03107948
     atom  210 type  1   force =    -0.00300290   -0.11425722   -0.07258746
     atom  211 type  1   force =    -0.10209010    0.05988273   -0.14182277
     atom  212 type  1   force =    -0.04116478    0.02953687    0.02807051
     atom  213 type  1   force =     0.07736066   -0.07515607   -0.02487878
     atom  214 type  1   force =     0.07603083   -0.03329809    0.01889805
     atom  215 type  1   force =     0.02395542    0.03290742   -0.07523889
     atom  216 type  1   force =     0.05876092   -0.10922605    0.06419599
     atom  217 type  1   force =    -0.08646645    0.10610530    0.06664381
     atom  218 type  1   force =     0.08372982    0.04328019   -0.13747407
     atom  219 type  1   force =    -0.09061812   -0.10701888    0.00960965
     atom  220 type  1   force =    -0.18672823   -0.16139096    0.15908080
     atom  221 type  1   force =    -0.13796317   -0.05045114   -0.25717590
     atom  222 type  1   force =     0.06058794    0.04492239   -0.08553443
     atom  223 type  1   force =     0.26503602   -0.07419239    0.15949722
     atom  224 type  1   force =    -0.10036024    0.12478559    0.09164807
     atom  225 type  1   force =    -0.03587431   -0.05968443   -0.11260475
     atom  226 type  1   force =    -0.07529343   -0.03518004   -0.00338394
     atom  227 type  1   force =     0.09202870    0.03595515    0.17332226
     atom  228 type  1   force =    -0.02723069    0.02680125    0.01132945
     atom  229 type  1   force =    -0.04037758    0.07822208   -0.14613242
     atom  230 type  1   force =    -0.06973387    0.06518482   -0.02638738
     atom  231 type  1   force =     0.10922256    0.00906998    0.13199568
     atom  232 type  1   force =     0.00172942   -0.10518032    0.02545681
     atom  233 type  1   force =     0.00355783    0.08941365   -0.08216296
     atom  234 type  1   force =     0.15662244   -0.14929845   -0.00108593
     atom  235 type  1   force =     0.11108954    0.14310596    0.01903845
     atom  236 type  1   force =     0.14782078   -0.10784455    0.05380518
     atom  237 type  1   force =     0.08437301    0.00928996   -0.09727414
     atom  238 type  1   force =    -0.07129868    0.01109993   -0.05606562
     atom  239 type  1   force =    -0.07867505    0.00595796   -0.04050062
     atom  240 type  1   force =     0.18232304    0.17272958   -0.06298582
     atom  241 type  1   force =     0.00955542   -0.06072731    0.00121962
     atom  242 type  1   force =    -0.10170450    0.12344837    0.30506206
     atom  243 type  1   force =    -0.02480991   -0.00076067   -0.05078181
     atom  244 type  1   force =     0.01714528    0.00851119    0.06015575
     atom  245 type  1   force =    -0.01638447    0.05560617   -0.01140774
     atom  246 type  1   force =    -0.00459799    0.04992994    0.02581742
     atom  247 type  1   force =     0.07722077    0.03260334   -0.01006849
     atom  248 type  1   force =     0.02118638   -0.08182319    0.04584459
     atom  249 type  1   force =    -0.13582455    0.19231101   -0.03944185
     atom  250 type  1   force =    -0.00402658   -0.09732354    0.03212791
     atom  251 type  1   force =     0.00378625   -0.05154506    0.01446761
     atom  252 type  1   force =     0.04407280    0.00448878   -0.04094198
     atom  253 type  1   force =     0.10181514    0.07659785    0.01123692
     atom  254 type  1   force =    -0.04232077   -0.05291887   -0.10213705
     atom  255 type  1   force =    -0.05781804   -0.27496840   -0.18550726
     atom  256 type  1   force =    -0.07801401    0.03197036   -0.03082737

     Total force =     2.577455     Total SCF correction =     0.000364


     entering subroutine stress ...

          total   stress  (Ry/bohr**3)                   (kbar)     P=  135.26
   0.00093336  -0.00001298   0.00004333        137.30     -1.91      6.37
  -0.00001298   0.00095321  -0.00001491         -1.91    140.22     -2.19
   0.00004333  -0.00001491   0.00087193          6.37     -2.19    128.27


     Writing output data file 7dadbc08fb58.save
 
     init_run     :     78.04s CPU     82.61s WALL (       1 calls)
     electrons    :   1652.24s CPU   1721.30s WALL (       1 calls)
     forces       :     40.62s CPU     40.84s WALL (       1 calls)
     stress       :    189.36s CPU    189.93s WALL (       1 calls)

     Called by init_run:
     wfcinit      :     72.37s CPU     76.47s WALL (       1 calls)
     potinit      :      0.65s CPU      0.79s WALL (       1 calls)

     Called by electrons:
     c_bands      :   1458.71s CPU   1514.62s WALL (      11 calls)
     sum_band     :    141.78s CPU    151.77s WALL (      11 calls)
     v_of_rho     :      1.45s CPU      2.31s WALL (      12 calls)
     newd         :     44.24s CPU     44.68s WALL (      12 calls)
     mix_rho      :      2.82s CPU      3.78s WALL (      11 calls)

     Called by c_bands:
     init_us_2    :      3.85s CPU      3.92s WALL (     100 calls)
     cegterg      :   1443.56s CPU   1499.12s WALL (      44 calls)

     Called by *egterg:
     h_psi        :    542.77s CPU    595.52s WALL (     228 calls)
     s_psi        :    155.13s CPU    155.93s WALL (     228 calls)
     g_psi        :      2.01s CPU      2.01s WALL (     180 calls)
     cdiaghg      :    544.84s CPU    545.68s WALL (     224 calls)

     Called by h_psi:
     add_vuspsi   :    155.40s CPU    156.18s WALL (     228 calls)

     General routines
     calbec       :    236.54s CPU    236.95s WALL (     280 calls)
     fft          :      2.05s CPU      3.89s WALL (     213 calls)
     ffts         :      0.76s CPU      1.67s WALL (     153 calls)
     fftw         :    226.06s CPU    286.57s WALL (  134188 calls)
     interpolate  :      0.37s CPU      0.71s WALL (      23 calls)
     davcio       :      0.00s CPU      2.11s WALL (       4 calls)
 
     Parallel routines
     fft_scatter  :    133.01s CPU    172.62s WALL (  134554 calls)
 
     PAW routines
     PAW_pot      :      4.83s CPU      5.05s WALL (      12 calls)
     PAW_ddot     :      1.69s CPU      1.72s WALL (     211 calls)
 
     PWSCF        : 32m49.80s CPU    34m 8.32s WALL

 
   This run was terminated on:  21: 4:15  15Oct2013            

=------------------------------------------------------------------------------=
   JOB DONE.
=------------------------------------------------------------------------------=
