
     Program PWSCF v.5.0.2 (svn rev. 9392) starts on 22Oct2013 at 16: 1:55 

     This program is part of the open-source Quantum ESPRESSO suite
     for quantum simulation of materials; please cite
         "P. Giannozzi et al., J. Phys.:Condens. Matter 21 395502 (2009);
          URL http://www.quantum-espresso.org", 
     in publications or presentations arising from this work. More details at
     http://www.quantum-espresso.org/quote.php

     Parallel version (MPI & OpenMP), running on     256 processor cores
     Number of MPI processes:               128
     Threads/MPI process:                     2
     R & G space division:  proc/nbgrp/npool/nimage =     128

     Current dimensions of program PWSCF are:
     Max number of different atomic species (ntypx) = 10
     Max number of k-points (npk) =  40000
     Max angular momentum in pseudopotentials (lmaxx) =  3
     Waiting for input...
     Reading input from standard input
Warning: card &IONS ignored
Warning: card ION_DYNAMICS='BFGS', ignored
Warning: card / ignored
Warning: card &CELL ignored
Warning: card CELL_DYNAMICS='BFGS', ignored
Warning: card PRESS=0.0, ignored
Warning: card CELL_FACTOR=2.0, ignored
Warning: card / ignored
               file Al.pbe-n-kjpaw_psl.0.1.UPF: wavefunction(s)  3S renormalized

     Subspace diagonalization in iterative solution of the eigenvalue problem:
     scalapack distributed-memory algorithm (size of sub-group:  8*  8 procs)

     Found symmetry operation: I + (  0.1250  0.1250  0.0000)
     This is a supercell, fractional translations are disabled

     Parallelization info
     --------------------
     sticks:   dense  smooth     PW     G-vecs:    dense   smooth      PW
     Min         120      80     20                11224     6176     805
     Max         121      81     21                11230     6215     815
     Sum       15423   10367   2671              1437003   793555  103801



     bravais-lattice index     =           14
     lattice parameter (alat)  =      30.1602  a.u.
     unit-cell volume          =   28367.2712 (a.u.)^3
     number of atoms/cell      =          256
     number of atomic types    =            1
     number of electrons       =       768.00
     number of Kohn-Sham states=          461
     kinetic-energy cutoff     =      35.0000  Ry
     charge density cutoff     =     208.0000  Ry
     convergence threshold     =      1.0E-07
     mixing beta               =       0.7000
     number of iterations used =            8  local-TF  mixing
     Exchange-correlation      =  SLA  PW   PBX  PBC ( 1 4 3 4 0)
     EXX-fraction              =        0.00

     celldm(1)=  30.160162  celldm(2)=   1.023939  celldm(3)=   1.009913
     celldm(4)=  -0.000605  celldm(5)=  -0.011411  celldm(6)=   0.007817

     crystal axes: (cart. coord. in units of alat)
               a(1) = (   1.000000   0.000000   0.000000 )  
               a(2) = (   0.008005   1.023908   0.000000 )  
               a(3) = (  -0.011524  -0.000520   1.009847 )  

     reciprocal axes: (cart. coord. in units 2 pi/alat)
               b(1) = (  1.000000 -0.007818  0.011407 )  
               b(2) = ( -0.000000  0.976651  0.000503 )  
               b(3) = (  0.000000  0.000000  0.990249 )  


     PseudoPot. # 1 for Al read from file:
     /work/e298/e298/benp/pp/Al.pbe-n-kjpaw_psl.0.1.UPF
     MD5 check sum: c290c600b2b3f4e95cb15d62bc64d19d
     Pseudo is Projector augmented-wave + core cor, Zval =  3.0
     Generated using "atomic" code by A. Dal Corso  v.5.0.2 svn rev. 9392
     Shape of augmentation charge: PSQ
     Using radial grid of 1135 points,  4 beta functions with: 
                l(1) =   0
                l(2) =   0
                l(3) =   1
                l(4) =   1
     Q(r) pseudized with 0 coefficients 


     atomic species   valence    mass     pseudopotential
        N              3.00    26.98154     Al( 1.00)

      2 Sym. Ops., with inversion, found



   Cartesian axes

     site n.     atom                  positions (alat units)
         1           N   tau(   1) = (   0.0000000   0.0000000   0.0000000  )
         2           N   tau(   2) = (   0.1260006   0.1279885   0.0000000  )
         3           N   tau(   3) = (   0.1235595  -0.0000651   0.1262309  )
         4           N   tau(   4) = (  -0.0004399   0.1279234   0.1262309  )
         5           N   tau(   5) = (   0.2500000   0.0000000   0.0000000  )
         6           N   tau(   6) = (   0.2495601   0.1279234   0.1262309  )
         7           N   tau(   7) = (   0.3760006   0.1279885   0.0000000  )
         8           N   tau(   8) = (   0.3735595  -0.0000651   0.1262309  )
         9           N   tau(   9) = (  -0.0028809  -0.0001301   0.2524618  )
        10           N   tau(  10) = (   0.1231196   0.1278584   0.2524618  )
        11           N   tau(  11) = (   0.1206786  -0.0001952   0.3786927  )
        12           N   tau(  12) = (  -0.0033208   0.1277933   0.3786927  )
        13           N   tau(  13) = (  -0.0057619  -0.0002602   0.5049237  )
        14           N   tau(  14) = (   0.1202387   0.1277283   0.5049237  )
        15           N   tau(  15) = (   0.1177977  -0.0003253   0.6311546  )
        16           N   tau(  16) = (  -0.0062018   0.1276632   0.6311546  )
        17           N   tau(  17) = (  -0.0086428  -0.0003903   0.7573855  )
        18           N   tau(  18) = (   0.1173578   0.1275981   0.7573855  )
        19           N   tau(  19) = (   0.1149167  -0.0004554   0.8836164  )
        20           N   tau(  20) = (  -0.0090827   0.1275331   0.8836164  )
        21           N   tau(  21) = (   0.0020011   0.2559769   0.0000000  )
        22           N   tau(  22) = (   0.1280017   0.3839654   0.0000000  )
        23           N   tau(  23) = (   0.1255607   0.2559119   0.1262309  )
        24           N   tau(  24) = (   0.0015612   0.3839003   0.1262309  )
        25           N   tau(  25) = (  -0.0008798   0.2558468   0.2524618  )
        26           N   tau(  26) = (   0.1251208   0.3838353   0.2524618  )
        27           N   tau(  27) = (   0.1226797   0.2557818   0.3786927  )
        28           N   tau(  28) = (  -0.0013197   0.3837702   0.3786927  )
        29           N   tau(  29) = (  -0.0037607   0.2557167   0.5049237  )
        30           N   tau(  30) = (   0.1222398   0.3837052   0.5049237  )
        31           N   tau(  31) = (   0.1197988   0.2556517   0.6311546  )
        32           N   tau(  32) = (  -0.0042006   0.3836401   0.6311546  )
        33           N   tau(  33) = (  -0.0066417   0.2555866   0.7573855  )
        34           N   tau(  34) = (   0.1193589   0.3835751   0.7573855  )
        35           N   tau(  35) = (   0.1169179   0.2555216   0.8836164  )
        36           N   tau(  36) = (  -0.0070815   0.3835100   0.8836164  )
        37           N   tau(  37) = (   0.0040023   0.5119539   0.0000000  )
        38           N   tau(  38) = (   0.1300028   0.6399423   0.0000000  )
        39           N   tau(  39) = (   0.1275618   0.5118888   0.1262309  )
        40           N   tau(  40) = (   0.0035624   0.6398773   0.1262309  )
        41           N   tau(  41) = (   0.0011213   0.5118238   0.2524618  )
        42           N   tau(  42) = (   0.1271219   0.6398122   0.2524618  )
        43           N   tau(  43) = (   0.1246809   0.5117587   0.3786927  )
        44           N   tau(  44) = (   0.0006814   0.6397472   0.3786927  )
        45           N   tau(  45) = (  -0.0017596   0.5116936   0.5049237  )
        46           N   tau(  46) = (   0.1242410   0.6396821   0.5049237  )
        47           N   tau(  47) = (   0.1217999   0.5116286   0.6311546  )
        48           N   tau(  48) = (  -0.0021995   0.6396171   0.6311546  )
        49           N   tau(  49) = (  -0.0046405   0.5115635   0.7573855  )
        50           N   tau(  50) = (   0.1213601   0.6395520   0.7573855  )
        51           N   tau(  51) = (   0.1189190   0.5114985   0.8836164  )
        52           N   tau(  52) = (  -0.0050804   0.6394870   0.8836164  )
        53           N   tau(  53) = (   0.0060034   0.7679308   0.0000000  )
        54           N   tau(  54) = (   0.1320040   0.8959192   0.0000000  )
        55           N   tau(  55) = (   0.1295629   0.7678657   0.1262309  )
        56           N   tau(  56) = (   0.0055635   0.8958542   0.1262309  )
        57           N   tau(  57) = (   0.0031225   0.7678007   0.2524618  )
        58           N   tau(  58) = (   0.1291230   0.8957891   0.2524618  )
        59           N   tau(  59) = (   0.1266820   0.7677356   0.3786927  )
        60           N   tau(  60) = (   0.0026826   0.8957241   0.3786927  )
        61           N   tau(  61) = (   0.0002415   0.7676706   0.5049237  )
        62           N   tau(  62) = (   0.1262421   0.8956590   0.5049237  )
        63           N   tau(  63) = (   0.1238011   0.7676055   0.6311546  )
        64           N   tau(  64) = (  -0.0001983   0.8955940   0.6311546  )
        65           N   tau(  65) = (  -0.0026394   0.7675405   0.7573855  )
        66           N   tau(  66) = (   0.1233612   0.8955289   0.7573855  )
        67           N   tau(  67) = (   0.1209202   0.7674754   0.8836164  )
        68           N   tau(  68) = (  -0.0030793   0.8954639   0.8836164  )
        69           N   tau(  69) = (   0.2471191  -0.0001301   0.2524618  )
        70           N   tau(  70) = (   0.3731196   0.1278584   0.2524618  )
        71           N   tau(  71) = (   0.3706786  -0.0001952   0.3786927  )
        72           N   tau(  72) = (   0.2466792   0.1277933   0.3786927  )
        73           N   tau(  73) = (   0.2442381  -0.0002602   0.5049237  )
        74           N   tau(  74) = (   0.3702387   0.1277283   0.5049237  )
        75           N   tau(  75) = (   0.3677977  -0.0003253   0.6311546  )
        76           N   tau(  76) = (   0.2437982   0.1276632   0.6311546  )
        77           N   tau(  77) = (   0.2413572  -0.0003903   0.7573855  )
        78           N   tau(  78) = (   0.3673578   0.1275981   0.7573855  )
        79           N   tau(  79) = (   0.3649167  -0.0004554   0.8836164  )
        80           N   tau(  80) = (   0.2409173   0.1275331   0.8836164  )
        81           N   tau(  81) = (   0.2520011   0.2559769   0.0000000  )
        82           N   tau(  82) = (   0.3780017   0.3839654   0.0000000  )
        83           N   tau(  83) = (   0.3755607   0.2559119   0.1262309  )
        84           N   tau(  84) = (   0.2515612   0.3839003   0.1262309  )
        85           N   tau(  85) = (   0.2491202   0.2558468   0.2524618  )
        86           N   tau(  86) = (   0.3751208   0.3838353   0.2524618  )
        87           N   tau(  87) = (   0.3726797   0.2557818   0.3786927  )
        88           N   tau(  88) = (   0.2486803   0.3837702   0.3786927  )
        89           N   tau(  89) = (   0.2462393   0.2557167   0.5049237  )
        90           N   tau(  90) = (   0.3722398   0.3837052   0.5049237  )
        91           N   tau(  91) = (   0.3697988   0.2556517   0.6311546  )
        92           N   tau(  92) = (   0.2457994   0.3836401   0.6311546  )
        93           N   tau(  93) = (   0.2433583   0.2555866   0.7573855  )
        94           N   tau(  94) = (   0.3693589   0.3835751   0.7573855  )
        95           N   tau(  95) = (   0.3669179   0.2555216   0.8836164  )
        96           N   tau(  96) = (   0.2429185   0.3835100   0.8836164  )
        97           N   tau(  97) = (   0.2540023   0.5119539   0.0000000  )
        98           N   tau(  98) = (   0.3800028   0.6399423   0.0000000  )
        99           N   tau(  99) = (   0.3775618   0.5118888   0.1262309  )
       100           N   tau( 100) = (   0.2535624   0.6398773   0.1262309  )
       101           N   tau( 101) = (   0.2511213   0.5118238   0.2524618  )
       102           N   tau( 102) = (   0.3771219   0.6398122   0.2524618  )
       103           N   tau( 103) = (   0.3746809   0.5117587   0.3786927  )
       104           N   tau( 104) = (   0.2506814   0.6397472   0.3786927  )
       105           N   tau( 105) = (   0.2482404   0.5116936   0.5049237  )
       106           N   tau( 106) = (   0.3742410   0.6396821   0.5049237  )
       107           N   tau( 107) = (   0.3717999   0.5116286   0.6311546  )
       108           N   tau( 108) = (   0.2478005   0.6396171   0.6311546  )
       109           N   tau( 109) = (   0.2453595   0.5115635   0.7573855  )
       110           N   tau( 110) = (   0.3713601   0.6395520   0.7573855  )
       111           N   tau( 111) = (   0.3689190   0.5114985   0.8836164  )
       112           N   tau( 112) = (   0.2449196   0.6394870   0.8836164  )
       113           N   tau( 113) = (   0.2560034   0.7679308   0.0000000  )
       114           N   tau( 114) = (   0.3820040   0.8959192   0.0000000  )
       115           N   tau( 115) = (   0.3795629   0.7678657   0.1262309  )
       116           N   tau( 116) = (   0.2555635   0.8958542   0.1262309  )
       117           N   tau( 117) = (   0.2531225   0.7678007   0.2524618  )
       118           N   tau( 118) = (   0.3791230   0.8957891   0.2524618  )
       119           N   tau( 119) = (   0.3766820   0.7677356   0.3786927  )
       120           N   tau( 120) = (   0.2526826   0.8957241   0.3786927  )
       121           N   tau( 121) = (   0.2502415   0.7676706   0.5049237  )
       122           N   tau( 122) = (   0.3762421   0.8956590   0.5049237  )
       123           N   tau( 123) = (   0.3738011   0.7676055   0.6311546  )
       124           N   tau( 124) = (   0.2498017   0.8955940   0.6311546  )
       125           N   tau( 125) = (   0.2473606   0.7675405   0.7573855  )
       126           N   tau( 126) = (   0.3733612   0.8955289   0.7573855  )
       127           N   tau( 127) = (   0.3709202   0.7674754   0.8836164  )
       128           N   tau( 128) = (   0.2469207   0.8954639   0.8836164  )
       129           N   tau( 129) = (   0.5000000   0.0000000   0.0000000  )
       130           N   tau( 130) = (   0.6260006   0.1279885   0.0000000  )
       131           N   tau( 131) = (   0.6235595  -0.0000651   0.1262309  )
       132           N   tau( 132) = (   0.4995601   0.1279234   0.1262309  )
       133           N   tau( 133) = (   0.4971191  -0.0001301   0.2524618  )
       134           N   tau( 134) = (   0.6231196   0.1278584   0.2524618  )
       135           N   tau( 135) = (   0.6206786  -0.0001952   0.3786927  )
       136           N   tau( 136) = (   0.4966792   0.1277933   0.3786927  )
       137           N   tau( 137) = (   0.4942381  -0.0002602   0.5049237  )
       138           N   tau( 138) = (   0.6202387   0.1277283   0.5049237  )
       139           N   tau( 139) = (   0.6177977  -0.0003253   0.6311546  )
       140           N   tau( 140) = (   0.4937982   0.1276632   0.6311546  )
       141           N   tau( 141) = (   0.4913572  -0.0003903   0.7573855  )
       142           N   tau( 142) = (   0.6173578   0.1275981   0.7573855  )
       143           N   tau( 143) = (   0.6149167  -0.0004554   0.8836164  )
       144           N   tau( 144) = (   0.4909173   0.1275331   0.8836164  )
       145           N   tau( 145) = (   0.5020011   0.2559769   0.0000000  )
       146           N   tau( 146) = (   0.6280017   0.3839654   0.0000000  )
       147           N   tau( 147) = (   0.6255607   0.2559119   0.1262309  )
       148           N   tau( 148) = (   0.5015612   0.3839003   0.1262309  )
       149           N   tau( 149) = (   0.4991202   0.2558468   0.2524618  )
       150           N   tau( 150) = (   0.6251208   0.3838353   0.2524618  )
       151           N   tau( 151) = (   0.6226797   0.2557818   0.3786927  )
       152           N   tau( 152) = (   0.4986803   0.3837702   0.3786927  )
       153           N   tau( 153) = (   0.4962393   0.2557167   0.5049237  )
       154           N   tau( 154) = (   0.6222398   0.3837052   0.5049237  )
       155           N   tau( 155) = (   0.6197988   0.2556517   0.6311546  )
       156           N   tau( 156) = (   0.4957994   0.3836401   0.6311546  )
       157           N   tau( 157) = (   0.4933583   0.2555866   0.7573855  )
       158           N   tau( 158) = (   0.6193589   0.3835751   0.7573855  )
       159           N   tau( 159) = (   0.6169179   0.2555216   0.8836164  )
       160           N   tau( 160) = (   0.4929185   0.3835100   0.8836164  )
       161           N   tau( 161) = (   0.5040023   0.5119539   0.0000000  )
       162           N   tau( 162) = (   0.6300028   0.6399423   0.0000000  )
       163           N   tau( 163) = (   0.6275618   0.5118888   0.1262309  )
       164           N   tau( 164) = (   0.5035624   0.6398773   0.1262309  )
       165           N   tau( 165) = (   0.5011213   0.5118238   0.2524618  )
       166           N   tau( 166) = (   0.6271219   0.6398122   0.2524618  )
       167           N   tau( 167) = (   0.6246809   0.5117587   0.3786927  )
       168           N   tau( 168) = (   0.5006814   0.6397472   0.3786927  )
       169           N   tau( 169) = (   0.4982404   0.5116936   0.5049237  )
       170           N   tau( 170) = (   0.6242410   0.6396821   0.5049237  )
       171           N   tau( 171) = (   0.6217999   0.5116286   0.6311546  )
       172           N   tau( 172) = (   0.4978005   0.6396171   0.6311546  )
       173           N   tau( 173) = (   0.4953595   0.5115635   0.7573855  )
       174           N   tau( 174) = (   0.6213601   0.6395520   0.7573855  )
       175           N   tau( 175) = (   0.6189190   0.5114985   0.8836164  )
       176           N   tau( 176) = (   0.4949196   0.6394870   0.8836164  )
       177           N   tau( 177) = (   0.5060034   0.7679308   0.0000000  )
       178           N   tau( 178) = (   0.6320040   0.8959192   0.0000000  )
       179           N   tau( 179) = (   0.6295629   0.7678657   0.1262309  )
       180           N   tau( 180) = (   0.5055635   0.8958542   0.1262309  )
       181           N   tau( 181) = (   0.5031225   0.7678007   0.2524618  )
       182           N   tau( 182) = (   0.6291230   0.8957891   0.2524618  )
       183           N   tau( 183) = (   0.6266820   0.7677356   0.3786927  )
       184           N   tau( 184) = (   0.5026826   0.8957241   0.3786927  )
       185           N   tau( 185) = (   0.5002415   0.7676706   0.5049237  )
       186           N   tau( 186) = (   0.6262421   0.8956590   0.5049237  )
       187           N   tau( 187) = (   0.6238011   0.7676055   0.6311546  )
       188           N   tau( 188) = (   0.4998017   0.8955940   0.6311546  )
       189           N   tau( 189) = (   0.4973606   0.7675405   0.7573855  )
       190           N   tau( 190) = (   0.6233612   0.8955289   0.7573855  )
       191           N   tau( 191) = (   0.6209202   0.7674754   0.8836164  )
       192           N   tau( 192) = (   0.4969207   0.8954639   0.8836164  )
       193           N   tau( 193) = (   0.7500000   0.0000000   0.0000000  )
       194           N   tau( 194) = (   0.8760006   0.1279885   0.0000000  )
       195           N   tau( 195) = (   0.8735595  -0.0000651   0.1262309  )
       196           N   tau( 196) = (   0.7495601   0.1279234   0.1262309  )
       197           N   tau( 197) = (   0.7471191  -0.0001301   0.2524618  )
       198           N   tau( 198) = (   0.8731196   0.1278584   0.2524618  )
       199           N   tau( 199) = (   0.8706786  -0.0001952   0.3786927  )
       200           N   tau( 200) = (   0.7466792   0.1277933   0.3786927  )
       201           N   tau( 201) = (   0.7442381  -0.0002602   0.5049237  )
       202           N   tau( 202) = (   0.8702387   0.1277283   0.5049237  )
       203           N   tau( 203) = (   0.8677977  -0.0003253   0.6311546  )
       204           N   tau( 204) = (   0.7437982   0.1276632   0.6311546  )
       205           N   tau( 205) = (   0.7413572  -0.0003903   0.7573855  )
       206           N   tau( 206) = (   0.8673578   0.1275981   0.7573855  )
       207           N   tau( 207) = (   0.8649167  -0.0004554   0.8836164  )
       208           N   tau( 208) = (   0.7409173   0.1275331   0.8836164  )
       209           N   tau( 209) = (   0.7520011   0.2559769   0.0000000  )
       210           N   tau( 210) = (   0.8780017   0.3839654   0.0000000  )
       211           N   tau( 211) = (   0.8755607   0.2559119   0.1262309  )
       212           N   tau( 212) = (   0.7515612   0.3839003   0.1262309  )
       213           N   tau( 213) = (   0.7491202   0.2558468   0.2524618  )
       214           N   tau( 214) = (   0.8751208   0.3838353   0.2524618  )
       215           N   tau( 215) = (   0.8726797   0.2557818   0.3786927  )
       216           N   tau( 216) = (   0.7486803   0.3837702   0.3786927  )
       217           N   tau( 217) = (   0.7462393   0.2557167   0.5049237  )
       218           N   tau( 218) = (   0.8722398   0.3837052   0.5049237  )
       219           N   tau( 219) = (   0.8697988   0.2556517   0.6311546  )
       220           N   tau( 220) = (   0.7457994   0.3836401   0.6311546  )
       221           N   tau( 221) = (   0.7433583   0.2555866   0.7573855  )
       222           N   tau( 222) = (   0.8693589   0.3835751   0.7573855  )
       223           N   tau( 223) = (   0.8669179   0.2555216   0.8836164  )
       224           N   tau( 224) = (   0.7429185   0.3835100   0.8836164  )
       225           N   tau( 225) = (   0.7540023   0.5119539   0.0000000  )
       226           N   tau( 226) = (   0.8800028   0.6399423   0.0000000  )
       227           N   tau( 227) = (   0.8775618   0.5118888   0.1262309  )
       228           N   tau( 228) = (   0.7535624   0.6398773   0.1262309  )
       229           N   tau( 229) = (   0.7511213   0.5118238   0.2524618  )
       230           N   tau( 230) = (   0.8771219   0.6398122   0.2524618  )
       231           N   tau( 231) = (   0.8746809   0.5117587   0.3786927  )
       232           N   tau( 232) = (   0.7506814   0.6397472   0.3786927  )
       233           N   tau( 233) = (   0.7482404   0.5116936   0.5049237  )
       234           N   tau( 234) = (   0.8742410   0.6396821   0.5049237  )
       235           N   tau( 235) = (   0.8717999   0.5116286   0.6311546  )
       236           N   tau( 236) = (   0.7478005   0.6396171   0.6311546  )
       237           N   tau( 237) = (   0.7453595   0.5115635   0.7573855  )
       238           N   tau( 238) = (   0.8713601   0.6395520   0.7573855  )
       239           N   tau( 239) = (   0.8689190   0.5114985   0.8836164  )
       240           N   tau( 240) = (   0.7449196   0.6394870   0.8836164  )
       241           N   tau( 241) = (   0.7560034   0.7679308   0.0000000  )
       242           N   tau( 242) = (   0.8820040   0.8959192   0.0000000  )
       243           N   tau( 243) = (   0.8795629   0.7678657   0.1262309  )
       244           N   tau( 244) = (   0.7555635   0.8958542   0.1262309  )
       245           N   tau( 245) = (   0.7531225   0.7678007   0.2524618  )
       246           N   tau( 246) = (   0.8791230   0.8957891   0.2524618  )
       247           N   tau( 247) = (   0.8766820   0.7677356   0.3786927  )
       248           N   tau( 248) = (   0.7526826   0.8957241   0.3786927  )
       249           N   tau( 249) = (   0.7502415   0.7676706   0.5049237  )
       250           N   tau( 250) = (   0.8762421   0.8956590   0.5049237  )
       251           N   tau( 251) = (   0.8738011   0.7676055   0.6311546  )
       252           N   tau( 252) = (   0.7498017   0.8955940   0.6311546  )
       253           N   tau( 253) = (   0.7473606   0.7675405   0.7573855  )
       254           N   tau( 254) = (   0.8733612   0.8955289   0.7573855  )
       255           N   tau( 255) = (   0.8709202   0.7674754   0.8836164  )
       256           N   tau( 256) = (   0.7469207   0.8954639   0.8836164  )

     number of k points=     4  Marzari-Vanderbilt smearing, width (Ry)=  0.0500
                       cart. coord. in units 2pi/alat
        k(    1) = (   0.2500000   0.2422082   0.2505398), wk =   0.5000000
        k(    2) = (   0.2500000   0.2422082  -0.2445845), wk =   0.5000000
        k(    3) = (   0.2500000  -0.2461170   0.2502882), wk =   0.5000000
        k(    4) = (   0.2500000  -0.2461170  -0.2448362), wk =   0.5000000

     Dense  grid:  1437003 G-vectors     FFT dimensions: ( 144, 144, 144)

     Smooth grid:   793555 G-vectors     FFT dimensions: ( 120, 120, 120)

     Largest allocated arrays     est. size (Mb)     dimensions
        Kohn-Sham Wavefunctions         5.44 Mb     (    774,  461)
        NL pseudopotentials            24.19 Mb     (    774, 2048)
        Each V/rho on FFT grid          0.63 Mb     (  41472)
        Each G-vector array             0.09 Mb     (  11225)
        G-vector shells                 0.09 Mb     (  11156)
     Largest temporary arrays     est. size (Mb)     dimensions
        Auxiliary wavefunctions        21.78 Mb     (    774, 1844)
        Each subspace H/S matrix        0.81 Mb     ( 230, 230)
        Each <psi_i|beta_j> matrix     14.41 Mb     (   2048,  461)
        Arrays for rho mixing           5.06 Mb     (  41472,   8)

     Check: negative/imaginary core charge=   -0.000006    0.000000

     Initial potential from superposition of free atoms

     starting charge  767.41368, renormalised to  768.00000
     Starting wfc are 1024 randomized atomic wfcs
     Checking if some PAW data can be deallocated... 

     total cpu time spent up to now is       44.0 secs

     per-process dynamical memory:   175.9 Mb

     Self-consistent Calculation

     iteration #  1     ecut=    35.00 Ry     beta=0.70
     Davidson diagonalization with overlap
     ethr =  1.00E-02,  avg # of iterations =  3.0

     Threshold (ethr) on eigenvalues was too large:
     Diagonalizing with lowered threshold

     Davidson diagonalization with overlap
     ethr =  1.93E-04,  avg # of iterations =  7.0

     total cpu time spent up to now is      224.8 secs

     total energy              =  -10112.85112273 Ry
     Harris-Foulkes estimate   =  -10113.10302909 Ry
     estimated scf accuracy    <       1.40724638 Ry

     iteration #  2     ecut=    35.00 Ry     beta=0.70
     Davidson diagonalization with overlap
     ethr =  1.83E-04,  avg # of iterations =  2.5

     total cpu time spent up to now is      277.5 secs

     total energy              =  -10112.74213852 Ry
     Harris-Foulkes estimate   =  -10112.86581308 Ry
     estimated scf accuracy    <       0.36920828 Ry

     iteration #  3     ecut=    35.00 Ry     beta=0.70
     Davidson diagonalization with overlap
     ethr =  4.81E-05,  avg # of iterations =  2.3

     total cpu time spent up to now is      332.2 secs

     total energy              =  -10112.75257392 Ry
     Harris-Foulkes estimate   =  -10112.75306360 Ry
     estimated scf accuracy    <       0.00129108 Ry

     iteration #  4     ecut=    35.00 Ry     beta=0.70
     Davidson diagonalization with overlap
     c_bands:  3 eigenvalues not converged
     c_bands:  3 eigenvalues not converged
     c_bands:  3 eigenvalues not converged
     c_bands:  2 eigenvalues not converged
     ethr =  1.68E-07,  avg # of iterations = 25.0

     total cpu time spent up to now is      529.3 secs

     total energy              =  -10112.75805160 Ry
     Harris-Foulkes estimate   =  -10112.75806526 Ry
     estimated scf accuracy    <       0.00003179 Ry

     iteration #  5     ecut=    35.00 Ry     beta=0.70
     Davidson diagonalization with overlap
     c_bands:  1 eigenvalues not converged
     c_bands:  1 eigenvalues not converged
     ethr =  4.14E-09,  avg # of iterations = 19.5

     total cpu time spent up to now is      686.6 secs

     total energy              =  -10112.75808391 Ry
     Harris-Foulkes estimate   =  -10112.75806534 Ry
     estimated scf accuracy    <       0.00001059 Ry

     iteration #  6     ecut=    35.00 Ry     beta=0.70
     Davidson diagonalization with overlap
     ethr =  1.38E-09,  avg # of iterations =  4.3

     total cpu time spent up to now is      804.8 secs

     total energy              =  -10112.75805394 Ry
     Harris-Foulkes estimate   =  -10112.75809582 Ry
     estimated scf accuracy    <       0.00004928 Ry

     iteration #  7     ecut=    35.00 Ry     beta=0.70
     Davidson diagonalization with overlap
     ethr =  1.38E-09,  avg # of iterations =  4.8

     total cpu time spent up to now is      926.7 secs

     total energy              =  -10112.75805982 Ry
     Harris-Foulkes estimate   =  -10112.75805985 Ry
     estimated scf accuracy    <       0.00000010 Ry

     iteration #  8     ecut=    35.00 Ry     beta=0.70
     Davidson diagonalization with overlap
     ethr =  1.34E-11,  avg # of iterations =  6.0

     total cpu time spent up to now is     1041.5 secs

     End of self-consistent calculation

          k = 0.2500 0.2422 0.2505 ( 99195 PWs)   bands (ev):

    -3.1090  -2.8302  -2.8280  -2.8199  -2.5505  -2.5491  -2.5264  -2.2824
    -2.2569  -2.2538  -2.2393  -2.0035  -1.9862  -1.9795  -1.9773  -1.9730
    -1.9533  -1.7123  -1.6949  -1.6870  -1.4523  -1.4315  -1.4264  -1.4174
    -1.3791  -1.3764  -1.1841  -1.1734  -1.1622  -1.1500  -1.1406  -1.1211
    -1.1058  -1.0927  -1.0756  -0.8927  -0.8384  -0.8175  -0.6081  -0.6015
    -0.5836  -0.5752  -0.5677  -0.5599  -0.5450  -0.3696  -0.3542  -0.3107
    -0.3039  -0.2997  -0.2832  -0.2831  -0.2438  -0.2323  -0.0950  -0.0687
    -0.0253  -0.0109   0.0177   0.0583   0.2181   0.2191   0.2224   0.2234
     0.2378   0.2703   0.2767   0.3083   0.3434   0.4665   0.4706   0.5132
     0.5247   0.5285   0.5608   0.5949   0.5996   0.6312   0.7269   0.7570
     0.7937   0.8090   0.8741   0.9194   0.9905   1.0329   1.0642   1.0868
     1.1664   1.1759   1.2459   1.2653   1.2881   1.3146   1.3391   1.3592
     1.3618   1.3627   1.3756   1.3932   1.4051   1.4202   1.4209   1.4256
     1.4862   1.5328   1.5773   1.6105   1.6150   1.6582   1.6640   1.6684
     1.6740   1.7313   1.8197   1.8608   1.8878   1.8937   1.9289   1.9681
     2.0032   2.0612   2.0900   2.1215   2.1592   2.1667   2.1730   2.1821
     2.2114   2.2124   2.2231   2.2767   2.3107   2.4053   2.4193   2.5730
     2.5867   2.6212   2.6376   2.6640   2.6751   2.6819   2.6960   2.6987
     2.7332   2.7421   2.7908   2.8399   2.8410   2.8484   2.8686   2.8750
     2.8907   2.9143   2.9168   2.9311   2.9824   2.9956   3.0074   3.0115
     3.0386   3.0400   3.0809   3.0914   3.1332   3.1396   3.1544   3.2392
     3.2429   3.2601   3.3551   3.3722   3.3825   3.3948   3.4134   3.4669
     3.5068   3.5120   3.5354   3.6107   3.6148   3.6326   3.6368   3.6821
     3.6887   3.7022   3.7312   3.7430   3.7822   3.8058   3.8327   3.8430
     3.8456   3.8807   3.8818   3.9554   3.9886   4.0098   4.0590   4.0706
     4.0757   4.0774   4.0798   4.1686   4.1925   4.2045   4.2424   4.2799
     4.3239   4.3262   4.3279   4.3437   4.3779   4.3951   4.4260   4.4496
     4.4582   4.4794   4.5039   4.5190   4.5361   4.5426   4.5569   4.5670
     4.5864   4.5918   4.6091   4.6531   4.6688   4.6715   4.6809   4.6859
     4.7012   4.7112   4.7817   4.8304   4.8631   4.9013   4.9718   4.9895
     5.0629   5.0733   5.0835   5.0977   5.1432   5.1558   5.1708   5.1864
     5.2040   5.2100   5.2442   5.2756   5.2791   5.2912   5.2918   5.2989
     5.3231   5.3589   5.3638   5.3721   5.3859   5.3921   5.4094   5.4172
     5.4207   5.4264   5.4340   5.4404   5.4681   5.5243   5.5444   5.5452
     5.5566   5.5912   5.5915   5.5987   5.5988   5.6202   5.6527   5.6547
     5.6691   5.7517   5.8655   5.8781   5.8820   5.9021   5.9107   5.9317
     5.9438   5.9590   6.0362   6.0382   6.0674   6.0722   6.1307   6.1402
     6.1619   6.1842   6.2067   6.2315   6.2319   6.2328   6.2443   6.2880
     6.3099   6.3546   6.3955   6.4010   6.4015   6.4865   6.4911   6.5295
     6.5828   6.5902   6.6031   6.6877   6.6966   6.7407   6.7453   6.7477
     6.7561   6.7665   6.7800   6.7927   6.8443   6.8494   6.8754   6.8902
     6.8983   6.9290   6.9430   6.9539   6.9640   6.9865   6.9918   7.0235
     7.0235   7.0564   7.0668   7.0785   7.0846   7.0894   7.0924   7.0966
     7.1125   7.1379   7.1440   7.1883   7.2262   7.2424   7.2589   7.2794
     7.2974   7.3258   7.3352   7.3532   7.3565   7.3691   7.4309   7.4336
     7.4777   7.5195   7.5287   7.5422   7.5454   7.5608   7.5639   7.5671
     7.5707   7.5784   7.5806   7.6078   7.7036   7.7082   7.7247   7.7538
     7.7997   7.8312   7.8407   7.8533   7.8810   7.8841   7.9014   7.9044
     7.9426   7.9609   7.9672   8.0232   8.0264   8.0356   8.0517   8.0613
     8.1536   8.1917   8.1935   8.1992   8.2686   8.3114   8.3186   8.3356
     8.3449   8.3710   8.3764   8.3906   8.3924   8.4035   8.4445   8.4483
     8.4491   8.4592   8.4610   8.4743   8.5006   8.5055   8.5209   8.5267
     8.5938   8.6061   8.6158   8.6519   8.6565   8.6573   8.6813   8.7276
     8.7370   8.7387   8.7394   8.7590   8.7736   8.7884   8.7921   8.8109
     8.8272   8.8332   8.8483   8.8966   8.9106   8.9330   8.9455   8.9584
     8.9599   9.0424   9.0447   9.0780   9.0830   9.1262   9.1508   9.1800
     9.1937   9.2020   9.2042   9.2075   9.2088   9.2628   9.2911   9.3099
     9.3168   9.3229   9.3594   9.3737   9.3984

          k = 0.2500 0.2422-0.2446 ( 99190 PWs)   bands (ev):

    -3.1107  -2.8316  -2.8228  -2.8151  -2.5454  -2.5448  -2.5409  -2.2844
    -2.2723  -2.2624  -2.2475  -1.9975  -1.9843  -1.9816  -1.9613  -1.9555
    -1.9483  -1.7084  -1.6868  -1.6632  -1.4535  -1.4415  -1.4349  -1.4172
    -1.4055  -1.3678  -1.1787  -1.1700  -1.1393  -1.1368  -1.1320  -1.1308
    -1.1276  -1.1095  -1.1093  -0.9087  -0.8738  -0.8520  -0.6136  -0.6098
    -0.5877  -0.5828  -0.5341  -0.5268  -0.5040  -0.3719  -0.3276  -0.3142
    -0.2982  -0.2881  -0.2764  -0.2467  -0.2467  -0.2451  -0.0883  -0.0646
    -0.0234   0.0172   0.0441   0.0610   0.2056   0.2300   0.2351   0.2394
     0.2658   0.2775   0.2828   0.3242   0.3506   0.4579   0.4594   0.4762
     0.4898   0.5110   0.5202   0.5228   0.5462   0.5595   0.7527   0.7776
     0.8048   0.8332   0.8493   0.8528   0.9897   1.0907   1.0916   1.1049
     1.1159   1.1931   1.2514   1.2677   1.2721   1.3036   1.3193   1.3294
     1.3477   1.3541   1.3722   1.3741   1.4120   1.4347   1.4384   1.4611
     1.4751   1.5163   1.5821   1.6144   1.6241   1.6273   1.6791   1.7147
     1.7156   1.7610   1.8157   1.8493   1.8538   1.9088   1.9802   2.0199
     2.0533   2.0884   2.1423   2.1485   2.1581   2.1652   2.2100   2.2174
     2.2559   2.2592   2.2608   2.2762   2.2977   2.3857   2.4048   2.4607
     2.5706   2.6327   2.6429   2.6619   2.7070   2.7101   2.7104   2.7214
     2.7223   2.7465   2.7505   2.7698   2.7728   2.8285   2.8483   2.8727
     2.8772   2.8787   2.8828   2.9403   2.9717   2.9725   2.9886   2.9903
     3.0145   3.0275   3.0408   3.0988   3.1202   3.1403   3.1435   3.1727
     3.1927   3.2346   3.3007   3.3741   3.3828   3.4302   3.4666   3.5108
     3.5115   3.5121   3.5265   3.5793   3.5829   3.5919   3.5951   3.6043
     3.6616   3.6997   3.7249   3.7659   3.7870   3.8205   3.8352   3.8938
     3.8970   3.9041   3.9555   3.9909   3.9987   4.0212   4.1039   4.1114
     4.1223   4.1277   4.1660   4.1796   4.2087   4.2168   4.2187   4.2341
     4.2846   4.2890   4.2920   4.3116   4.3264   4.3431   4.3602   4.4593
     4.4617   4.4821   4.5293   4.5320   4.5392   4.5752   4.5917   4.5997
     4.6109   4.6319   4.6398   4.6878   4.6946   4.7476   4.7563   4.7739
     4.7794   4.7915   4.7981   4.8387   4.8474   4.9154   4.9205   5.0248
     5.0655   5.0667   5.0748   5.0853   5.1393   5.1405   5.1473   5.1590
     5.1636   5.1801   5.2571   5.2612   5.2652   5.2989   5.3136   5.3177
     5.3195   5.3374   5.3497   5.3860   5.3863   5.3964   5.3968   5.4074
     5.4082   5.4279   5.4412   5.4520   5.4721   5.4852   5.5181   5.5182
     5.5462   5.5527   5.5915   5.6048   5.6414   5.6448   5.7027   5.7075
     5.7205   5.7418   5.7433   5.7643   5.8838   5.9201   5.9345   5.9595
     5.9846   5.9890   6.0005   6.0259   6.0477   6.0607   6.0796   6.0850
     6.1204   6.1715   6.1744   6.1745   6.1765   6.1803   6.1813   6.1827
     6.1932   6.2194   6.3196   6.3449   6.3453   6.4209   6.4441   6.4815
     6.5629   6.6261   6.6298   6.6530   6.6580   6.6787   6.7069   6.7583
     6.7738   6.7905   6.8102   6.8181   6.8931   6.9047   6.9250   6.9334
     6.9562   6.9661   6.9686   7.0043   7.0143   7.0165   7.0230   7.0309
     7.0362   7.0622   7.0742   7.0857   7.0923   7.0942   7.1085   7.1191
     7.1270   7.1542   7.2047   7.2747   7.2763   7.2793   7.2950   7.3148
     7.3321   7.3361   7.3769   7.3875   7.3938   7.3995   7.4673   7.4773
     7.4804   7.5470   7.5598   7.5613   7.5731   7.5810   7.5884   7.5950
     7.6094   7.6150   7.6300   7.6456   7.7033   7.7449   7.7516   7.7755
     7.8044   7.8168   7.8205   7.8444   7.8639   7.8753   7.9009   7.9453
     7.9582   7.9634   7.9686   7.9690   7.9710   8.0093   8.0204   8.0761
     8.1530   8.2015   8.2127   8.2595   8.2695   8.3198   8.3297   8.3422
     8.3515   8.3927   8.3944   8.3969   8.4111   8.4138   8.4145   8.4196
     8.4833   8.4863   8.4876   8.5169   8.5192   8.5214   8.5234   8.5247
     8.5303   8.5575   8.5792   8.5999   8.6005   8.6065   8.6166   8.6325
     8.6702   8.6887   8.7065   8.7086   8.7125   8.7303   8.7490   8.7601
     8.7808   8.8067   8.8237   8.8364   8.8450   8.8998   8.9122   8.9294
     8.9761   8.9905   9.0094   9.0454   9.0776   9.0853   9.1691   9.2039
     9.2525   9.2636   9.2770   9.2826   9.2840   9.2878   9.2969   9.3120
     9.3472   9.3567   9.3695   9.3780   9.3858

          k = 0.2500-0.2461 0.2503 ( 99219 PWs)   bands (ev):

    -3.1080  -2.8333  -2.8266  -2.8234  -2.5531  -2.5404  -2.5295  -2.2772
    -2.2531  -2.2476  -2.2338  -2.0031  -1.9969  -1.9832  -1.9795  -1.9696
    -1.9673  -1.7103  -1.7041  -1.7013  -1.4595  -1.4279  -1.4158  -1.3994
    -1.3868  -1.3712  -1.1825  -1.1683  -1.1606  -1.1455  -1.1337  -1.1086
    -1.1080  -1.0979  -1.0830  -0.8713  -0.8301  -0.7953  -0.6132  -0.6127
    -0.5936  -0.5833  -0.5776  -0.5679  -0.5423  -0.3605  -0.3502  -0.3289
    -0.3175  -0.2968  -0.2827  -0.2806  -0.2800  -0.2226  -0.0986  -0.0834
    -0.0292  -0.0122   0.0276   0.0294   0.1909   0.2113   0.2307   0.2415
     0.2486   0.2495   0.2767   0.2786   0.3363   0.4770   0.5142   0.5307
     0.5322   0.5758   0.5996   0.6087   0.6206   0.6405   0.7249   0.7744
     0.7770   0.8582   0.8599   0.8916   0.9796   1.0233   1.0877   1.0887
     1.1316   1.1641   1.2513   1.2817   1.2942   1.3021   1.3361   1.3537
     1.3546   1.3592   1.3592   1.3856   1.4027   1.4165   1.4561   1.4662
     1.4748   1.5654   1.5864   1.5934   1.6040   1.6058   1.6339   1.6392
     1.6756   1.7654   1.8035   1.8119   1.8969   1.8998   1.9450   1.9561
     1.9768   2.0613   2.0975   2.0998   2.1415   2.1424   2.1550   2.1911
     2.2006   2.2087   2.2135   2.2470   2.2543   2.4089   2.5035   2.5856
     2.5953   2.6208   2.6416   2.6430   2.6861   2.7023   2.7115   2.7322
     2.7422   2.7501   2.8138   2.8335   2.8339   2.8430   2.8571   2.8617
     2.8799   2.9427   2.9458   2.9784   2.9811   2.9836   2.9940   3.0070
     3.0115   3.0945   3.0999   3.1103   3.1172   3.1177   3.1651   3.2510
     3.2806   3.3319   3.3364   3.3941   3.4035   3.4080   3.4480   3.4683
     3.4931   3.5359   3.5894   3.6040   3.6148   3.6385   3.6404   3.6804
     3.7051   3.7148   3.7271   3.7325   3.7587   3.7629   3.7802   3.8154
     3.8316   3.8686   3.9120   3.9512   3.9714   3.9927   3.9971   4.0413
     4.0539   4.0753   4.1053   4.1083   4.1734   4.1877   4.2113   4.2618
     4.3187   4.3234   4.3314   4.3894   4.3960   4.4080   4.4111   4.4725
     4.4745   4.4805   4.5054   4.5209   4.5419   4.5672   4.5738   4.5875
     4.5927   4.5934   4.5983   4.6053   4.6134   4.6144   4.6266   4.6369
     4.6501   4.6558   4.7761   4.8283   4.8991   4.9402   4.9594   4.9930
     5.0464   5.0707   5.0897   5.1066   5.1229   5.1351   5.1900   5.2038
     5.2403   5.2467   5.2671   5.2810   5.2923   5.2974   5.3003   5.3098
     5.3184   5.3576   5.3660   5.3702   5.3856   5.3891   5.4047   5.4119
     5.4137   5.4305   5.4616   5.4734   5.4898   5.5169   5.5335   5.5408
     5.5442   5.5499   5.5890   5.6030   5.6070   5.6606   5.6713   5.6893
     5.6972   5.7942   5.8329   5.8478   5.8688   5.8976   5.9157   5.9371
     5.9387   5.9685   5.9961   5.9974   6.0604   6.1040   6.1268   6.1721
     6.1935   6.2015   6.2460   6.2575   6.2751   6.2785   6.3064   6.3246
     6.4010   6.4060   6.4194   6.4199   6.4680   6.4949   6.5050   6.5118
     6.5820   6.6100   6.6227   6.6264   6.6736   6.6927   6.7132   6.7203
     6.7716   6.7934   6.8065   6.8305   6.8309   6.8403   6.9010   6.9107
     6.9176   6.9375   6.9384   6.9443   6.9755   6.9760   6.9891   7.0023
     7.0045   7.0194   7.0232   7.0336   7.0479   7.0735   7.0815   7.0886
     7.0963   7.1052   7.1262   7.1532   7.1685   7.1734   7.2184   7.2385
     7.2772   7.3002   7.3117   7.3234   7.3547   7.3966   7.3974   7.4099
     7.4479   7.4979   7.5027   7.5198   7.5232   7.5327   7.5389   7.5481
     7.5678   7.5829   7.6018   7.6261   7.6492   7.6876   7.7012   7.8004
     7.8217   7.8277   7.8318   7.8358   7.8883   7.9044   7.9090   7.9243
     7.9259   7.9437   7.9570   7.9813   7.9828   8.0118   8.0134   8.1479
     8.1573   8.2318   8.2412   8.2788   8.2845   8.2858   8.2928   8.3057
     8.3060   8.3272   8.3563   8.3675   8.4035   8.4084   8.4132   8.4565
     8.4567   8.4980   8.5046   8.5359   8.5470   8.5471   8.5926   8.6058
     8.6247   8.6303   8.6397   8.6630   8.6664   8.6667   8.7099   8.7272
     8.7300   8.7314   8.7457   8.7563   8.7679   8.7717   8.7741   8.7875
     8.8202   8.8351   8.8552   8.8855   8.9294   8.9503   8.9696   8.9911
     9.0284   9.0336   9.0502   9.0786   9.1000   9.1010   9.1263   9.2072
     9.2201   9.2217   9.2432   9.2752   9.2875   9.2881   9.3118   9.3190
     9.3363   9.3493   9.3609   9.3882   9.4247

          k = 0.2500-0.2461-0.2448 ( 99161 PWs)   bands (ev):

    -3.1096  -2.8352  -2.8219  -2.8184  -2.5475  -2.5444  -2.5357  -2.2785
    -2.2617  -2.2609  -2.2419  -1.9978  -1.9931  -1.9887  -1.9780  -1.9584
    -1.9430  -1.7260  -1.6791  -1.6780  -1.4616  -1.4342  -1.4114  -1.4072
    -1.4049  -1.3754  -1.1761  -1.1563  -1.1495  -1.1431  -1.1421  -1.1326
    -1.1171  -1.1106  -1.0868  -0.8843  -0.8625  -0.8285  -0.6238  -0.6213
    -0.5848  -0.5807  -0.5717  -0.5219  -0.5113  -0.3615  -0.3331  -0.3246
    -0.3154  -0.3073  -0.2965  -0.2599  -0.2369  -0.2250  -0.0931  -0.0805
    -0.0286   0.0146   0.0148   0.0705   0.1746   0.1991   0.2260   0.2578
     0.2873   0.2884   0.2906   0.3019   0.3222   0.4723   0.5023   0.5069
     0.5196   0.5289   0.5440   0.5443   0.5695   0.5948   0.7519   0.7868
     0.7989   0.8193   0.8203   0.8998   0.9772   1.0518   1.0821   1.1052
     1.1404   1.1815   1.2584   1.2857   1.3059   1.3087   1.3175   1.3231
     1.3445   1.3491   1.3501   1.3733   1.3974   1.4228   1.4543   1.4731
     1.4841   1.5491   1.5536   1.5586   1.6263   1.6418   1.6496   1.7146
     1.7341   1.7358   1.7950   1.8003   1.9043   1.9102   1.9624   1.9846
     2.0421   2.0869   2.1171   2.1191   2.1415   2.1456   2.1548   2.1910
     2.2021   2.2426   2.2430   2.3034   2.3310   2.4008   2.4707   2.4903
     2.5849   2.6010   2.6369   2.6884   2.7083   2.7122   2.7143   2.7169
     2.7233   2.7610   2.7891   2.7915   2.8180   2.8301   2.8394   2.8420
     2.8590   2.9054   2.9164   2.9648   2.9670   2.9846   2.9954   3.0386
     3.0410   3.0496   3.0696   3.0705   3.0800   3.1008   3.1533   3.2221
     3.2762   3.2808   3.3071   3.3912   3.4005   3.4414   3.4629   3.4899
     3.5180   3.5210   3.5281   3.5383   3.5517   3.6178   3.6614   3.6630
     3.6651   3.7072   3.7186   3.7246   3.7679   3.7695   3.7968   3.8248
     3.8539   3.9633   3.9679   3.9810   3.9899   4.0099   4.0224   4.0295
     4.0343   4.1111   4.1960   4.1986   4.2099   4.2151   4.2322   4.2445
     4.2987   4.3114   4.3268   4.3290   4.3562   4.3704   4.4165   4.4217
     4.4404   4.4422   4.4536   4.5028   4.5188   4.5393   4.5410   4.6005
     4.6122   4.6302   4.6657   4.6732   4.6750   4.6899   4.7100   4.7621
     4.7701   4.7771   4.7977   4.8076   4.8887   4.9023   4.9586   5.0362
     5.0668   5.0670   5.0878   5.1149   5.1235   5.1360   5.1519   5.1556
     5.1679   5.1861   5.1998   5.2578   5.2789   5.3141   5.3315   5.3518
     5.3622   5.3702   5.3771   5.3900   5.3906   5.3925   5.3931   5.4176
     5.4232   5.4281   5.4488   5.4728   5.4813   5.4852   5.5068   5.5069
     5.5274   5.5349   5.5999   5.6253   5.6300   5.6471   5.6633   5.6882
     5.7145   5.7263   5.7701   5.7816   5.8647   5.9114   5.9305   5.9314
     5.9359   6.0054   6.0746   6.0790   6.0797   6.0820   6.0828   6.1258
     6.1788   6.1852   6.1865   6.2053   6.2264   6.2355   6.2549   6.2777
     6.2816   6.2924   6.3054   6.3539   6.3701   6.3760   6.4916   6.5158
     6.5796   6.6295   6.6419   6.6429   6.6480   6.6772   6.7166   6.7560
     6.7843   6.7944   6.8063   6.8466   6.8502   6.8505   6.8769   6.9088
     6.9357   6.9424   6.9443   6.9488   6.9553   6.9726   6.9798   6.9866
     6.9963   7.0132   7.0516   7.0587   7.0708   7.0732   7.0759   7.1175
     7.1366   7.2088   7.2243   7.2315   7.2413   7.2871   7.2906   7.2923
     7.3055   7.3158   7.3316   7.3389   7.3694   7.3870   7.4080   7.4318
     7.4615   7.4898   7.5194   7.5275   7.5670   7.5776   7.5869   7.5923
     7.5941   7.6260   7.6732   7.6860   7.7197   7.7338   7.7343   7.7426
     7.7558   7.7981   7.8050   7.8106   7.8245   7.8494   7.9581   7.9739
     7.9828   7.9992   8.0216   8.0285   8.0419   8.0454   8.0625   8.1203
     8.1345   8.1524   8.1557   8.1620   8.1791   8.2371   8.3430   8.3496
     8.3858   8.3990   8.4003   8.4146   8.4364   8.4369   8.4812   8.4860
     8.4970   8.4971   8.4988   8.5109   8.5156   8.5451   8.5509   8.5633
     8.5722   8.5840   8.5953   8.6348   8.6401   8.6520   8.6685   8.6715
     8.6737   8.6742   8.6938   8.7102   8.7117   8.7156   8.7171   8.7305
     8.7470   8.8101   8.8206   8.8392   8.8539   8.9221   8.9932   9.0093
     9.0174   9.0265   9.1153   9.1424   9.1450   9.1459   9.1514   9.1529
     9.2210   9.2329   9.2441   9.2479   9.2753   9.2783   9.2787   9.2807
     9.3024   9.3111   9.3474   9.3821   9.3848

     the Fermi energy is     7.9363 ev

!    total energy              =  -10112.75805984 Ry
     Harris-Foulkes estimate   =  -10112.75805990 Ry
     estimated scf accuracy    <       0.00000005 Ry

     total all-electron energy =   -124325.310198 Ry

     The total energy is the sum of the following terms:

     one-electron contribution =     812.32985194 Ry
     hartree contribution      =       1.46095385 Ry
     xc contribution           =    -776.34865001 Ry
     ewald contribution        =   -1385.42935619 Ry
     one-center paw contrib.   =   -8764.82607678 Ry
     smearing contrib. (-TS)   =       0.05521734 Ry

     convergence has been achieved in   8 iterations

     Forces acting on atoms (Ry/au):

     atom    1 type  1   force =     0.00000000    0.00000000    0.00000000
     atom    2 type  1   force =    -0.00000021   -0.00000233    0.00000018
     atom    3 type  1   force =    -0.00000077    0.00000075   -0.00000189
     atom    4 type  1   force =     0.00000054   -0.00000208   -0.00000081
     atom    5 type  1   force =    -0.00000135    0.00000025   -0.00000026
     atom    6 type  1   force =    -0.00000035    0.00000044    0.00000080
     atom    7 type  1   force =    -0.00000117   -0.00000080    0.00000087
     atom    8 type  1   force =    -0.00000080    0.00000188   -0.00000051
     atom    9 type  1   force =    -0.00000029    0.00000034   -0.00000288
     atom   10 type  1   force =     0.00000145    0.00000082   -0.00000176
     atom   11 type  1   force =     0.00000076    0.00000141   -0.00000101
     atom   12 type  1   force =     0.00000012    0.00000026   -0.00000205
     atom   13 type  1   force =     0.00000000    0.00000000    0.00000000
     atom   14 type  1   force =     0.00000239    0.00000028   -0.00000032
     atom   15 type  1   force =     0.00000149   -0.00000043    0.00000128
     atom   16 type  1   force =     0.00000065   -0.00000002    0.00000156
     atom   17 type  1   force =     0.00000029   -0.00000034    0.00000288
     atom   18 type  1   force =     0.00000019   -0.00000051    0.00000188
     atom   19 type  1   force =    -0.00000066    0.00000028    0.00000166
     atom   20 type  1   force =     0.00000035   -0.00000187    0.00000120
     atom   21 type  1   force =     0.00000046   -0.00000267   -0.00000034
     atom   22 type  1   force =     0.00000132   -0.00000094    0.00000161
     atom   23 type  1   force =     0.00000191   -0.00000114    0.00000146
     atom   24 type  1   force =     0.00000145   -0.00000047    0.00000212
     atom   25 type  1   force =     0.00000080    0.00000035    0.00000002
     atom   26 type  1   force =     0.00000081   -0.00000000    0.00000087
     atom   27 type  1   force =     0.00000207    0.00000108   -0.00000172
     atom   28 type  1   force =     0.00000060    0.00000213   -0.00000071
     atom   29 type  1   force =     0.00000031    0.00000174   -0.00000046
     atom   30 type  1   force =     0.00000001    0.00000144   -0.00000114
     atom   31 type  1   force =     0.00000138    0.00000044    0.00000044
     atom   32 type  1   force =    -0.00000065    0.00000262    0.00000041
     atom   33 type  1   force =    -0.00000013    0.00000023    0.00000112
     atom   34 type  1   force =    -0.00000105   -0.00000007   -0.00000112
     atom   35 type  1   force =    -0.00000023   -0.00000216   -0.00000021
     atom   36 type  1   force =    -0.00000062   -0.00000055   -0.00000194
     atom   37 type  1   force =     0.00000000    0.00000000    0.00000000
     atom   38 type  1   force =     0.00000010    0.00000048    0.00000080
     atom   39 type  1   force =     0.00000114   -0.00000089    0.00000226
     atom   40 type  1   force =     0.00000062    0.00000055    0.00000194
     atom   41 type  1   force =     0.00000138   -0.00000033    0.00000242
     atom   42 type  1   force =    -0.00000030   -0.00000139    0.00000124
     atom   43 type  1   force =    -0.00000094   -0.00000051   -0.00000073
     atom   44 type  1   force =     0.00000065   -0.00000262   -0.00000041
     atom   45 type  1   force =     0.00000000    0.00000000    0.00000000
     atom   46 type  1   force =    -0.00000101   -0.00000174   -0.00000020
     atom   47 type  1   force =    -0.00000256    0.00000024   -0.00000064
     atom   48 type  1   force =    -0.00000060   -0.00000213    0.00000071
     atom   49 type  1   force =    -0.00000138    0.00000033   -0.00000242
     atom   50 type  1   force =    -0.00000128    0.00000062   -0.00000192
     atom   51 type  1   force =    -0.00000075   -0.00000015   -0.00000113
     atom   52 type  1   force =    -0.00000145    0.00000047   -0.00000212
     atom   53 type  1   force =    -0.00000046    0.00000267    0.00000034
     atom   54 type  1   force =    -0.00000044    0.00000260    0.00000017
     atom   55 type  1   force =    -0.00000107    0.00000136    0.00000016
     atom   56 type  1   force =    -0.00000035    0.00000187   -0.00000120
     atom   57 type  1   force =     0.00000013   -0.00000023   -0.00000112
     atom   58 type  1   force =    -0.00000145    0.00000065   -0.00000227
     atom   59 type  1   force =     0.00000010   -0.00000191   -0.00000074
     atom   60 type  1   force =    -0.00000065    0.00000002   -0.00000156
     atom   61 type  1   force =    -0.00000031   -0.00000174    0.00000046
     atom   62 type  1   force =     0.00000175   -0.00000003    0.00000123
     atom   63 type  1   force =     0.00000122   -0.00000057    0.00000166
     atom   64 type  1   force =    -0.00000012   -0.00000026    0.00000205
     atom   65 type  1   force =    -0.00000080   -0.00000035   -0.00000002
     atom   66 type  1   force =     0.00000080    0.00000030    0.00000087
     atom   67 type  1   force =    -0.00000001    0.00000199   -0.00000090
     atom   68 type  1   force =    -0.00000054    0.00000208    0.00000081
     atom   69 type  1   force =     0.00000048    0.00000292   -0.00000102
     atom   70 type  1   force =    -0.00000092    0.00000075    0.00000085
     atom   71 type  1   force =     0.00000144    0.00000220    0.00000200
     atom   72 type  1   force =     0.00000270    0.00000155   -0.00000054
     atom   73 type  1   force =     0.00000323    0.00000049    0.00000054
     atom   74 type  1   force =     0.00000065   -0.00000005   -0.00000120
     atom   75 type  1   force =     0.00000078   -0.00000073   -0.00000167
     atom   76 type  1   force =     0.00000200    0.00000043   -0.00000054
     atom   77 type  1   force =     0.00000013   -0.00000064    0.00000071
     atom   78 type  1   force =    -0.00000054    0.00000028   -0.00000073
     atom   79 type  1   force =    -0.00000074   -0.00000079    0.00000037
     atom   80 type  1   force =    -0.00000083   -0.00000115    0.00000052
     atom   81 type  1   force =     0.00000040   -0.00000088    0.00000176
     atom   82 type  1   force =    -0.00000085   -0.00000086    0.00000153
     atom   83 type  1   force =    -0.00000188   -0.00000039    0.00000109
     atom   84 type  1   force =     0.00000060   -0.00000087    0.00000117
     atom   85 type  1   force =     0.00000049   -0.00000066   -0.00000025
     atom   86 type  1   force =    -0.00000196   -0.00000078    0.00000016
     atom   87 type  1   force =    -0.00000113   -0.00000136    0.00000049
     atom   88 type  1   force =     0.00000012   -0.00000082   -0.00000064
     atom   89 type  1   force =     0.00000260   -0.00000030   -0.00000104
     atom   90 type  1   force =    -0.00000048   -0.00000169   -0.00000103
     atom   91 type  1   force =    -0.00000057   -0.00000098   -0.00000122
     atom   92 type  1   force =     0.00000034   -0.00000147   -0.00000114
     atom   93 type  1   force =     0.00000096   -0.00000105   -0.00000045
     atom   94 type  1   force =     0.00000025   -0.00000212   -0.00000058
     atom   95 type  1   force =    -0.00000052   -0.00000035   -0.00000046
     atom   96 type  1   force =     0.00000076   -0.00000145    0.00000039
     atom   97 type  1   force =     0.00000096   -0.00000143    0.00000235
     atom   98 type  1   force =     0.00000023   -0.00000007    0.00000068
     atom   99 type  1   force =    -0.00000147   -0.00000099    0.00000080
     atom  100 type  1   force =     0.00000008   -0.00000149    0.00000124
     atom  101 type  1   force =    -0.00000044   -0.00000082    0.00000061
     atom  102 type  1   force =    -0.00000040   -0.00000166    0.00000033
     atom  103 type  1   force =    -0.00000078   -0.00000104   -0.00000057
     atom  104 type  1   force =    -0.00000088   -0.00000154   -0.00000105
     atom  105 type  1   force =    -0.00000075   -0.00000117   -0.00000152
     atom  106 type  1   force =     0.00000052    0.00000059   -0.00000007
     atom  107 type  1   force =     0.00000069   -0.00000064   -0.00000113
     atom  108 type  1   force =    -0.00000075    0.00000174    0.00000027
     atom  109 type  1   force =    -0.00000095   -0.00000006   -0.00000096
     atom  110 type  1   force =     0.00000014    0.00000183   -0.00000085
     atom  111 type  1   force =     0.00000047   -0.00000077    0.00000061
     atom  112 type  1   force =     0.00000006    0.00000118   -0.00000064
     atom  113 type  1   force =    -0.00000015    0.00000221   -0.00000036
     atom  114 type  1   force =    -0.00000090    0.00000158   -0.00000154
     atom  115 type  1   force =     0.00000025   -0.00000020   -0.00000051
     atom  116 type  1   force =    -0.00000151    0.00000189   -0.00000240
     atom  117 type  1   force =    -0.00000097   -0.00000155    0.00000016
     atom  118 type  1   force =     0.00000101    0.00000143    0.00000066
     atom  119 type  1   force =     0.00000100    0.00000025    0.00000155
     atom  120 type  1   force =     0.00000162    0.00000082    0.00000154
     atom  121 type  1   force =     0.00000141    0.00000074    0.00000156
     atom  122 type  1   force =     0.00000144    0.00000135    0.00000148
     atom  123 type  1   force =    -0.00000018    0.00000228   -0.00000014
     atom  124 type  1   force =     0.00000202   -0.00000042    0.00000052
     atom  125 type  1   force =     0.00000020    0.00000165   -0.00000131
     atom  126 type  1   force =    -0.00000014   -0.00000023   -0.00000071
     atom  127 type  1   force =     0.00000014    0.00000213   -0.00000087
     atom  128 type  1   force =     0.00000004    0.00000138    0.00000019
     atom  129 type  1   force =     0.00000000    0.00000000    0.00000000
     atom  130 type  1   force =     0.00000090   -0.00000158    0.00000154
     atom  131 type  1   force =     0.00000074    0.00000079   -0.00000037
     atom  132 type  1   force =    -0.00000002   -0.00000041    0.00000087
     atom  133 type  1   force =     0.00000015    0.00000165    0.00000104
     atom  134 type  1   force =     0.00000014    0.00000023    0.00000071
     atom  135 type  1   force =    -0.00000078    0.00000073    0.00000167
     atom  136 type  1   force =    -0.00000080   -0.00000055    0.00000125
     atom  137 type  1   force =     0.00000000    0.00000000    0.00000000
     atom  138 type  1   force =    -0.00000144   -0.00000135   -0.00000148
     atom  139 type  1   force =    -0.00000144   -0.00000220   -0.00000200
     atom  140 type  1   force =    -0.00000093   -0.00000097   -0.00000230
     atom  141 type  1   force =    -0.00000015   -0.00000165   -0.00000104
     atom  142 type  1   force =    -0.00000101   -0.00000143   -0.00000066
     atom  143 type  1   force =     0.00000080   -0.00000188    0.00000051
     atom  144 type  1   force =    -0.00000107   -0.00000100    0.00000021
     atom  145 type  1   force =    -0.00000098   -0.00000023    0.00000081
     atom  146 type  1   force =    -0.00000023    0.00000007   -0.00000068
     atom  147 type  1   force =    -0.00000014   -0.00000213    0.00000087
     atom  148 type  1   force =    -0.00000194   -0.00000091    0.00000009
     atom  149 type  1   force =    -0.00000089   -0.00000173    0.00000084
     atom  150 type  1   force =    -0.00000014   -0.00000183    0.00000085
     atom  151 type  1   force =     0.00000018   -0.00000228    0.00000014
     atom  152 type  1   force =    -0.00000156   -0.00000096    0.00000068
     atom  153 type  1   force =    -0.00000136   -0.00000193   -0.00000093
     atom  154 type  1   force =    -0.00000052   -0.00000059    0.00000007
     atom  155 type  1   force =    -0.00000100   -0.00000025   -0.00000155
     atom  156 type  1   force =    -0.00000044   -0.00000044   -0.00000051
     atom  157 type  1   force =    -0.00000177    0.00000004   -0.00000082
     atom  158 type  1   force =     0.00000040    0.00000166   -0.00000033
     atom  159 type  1   force =    -0.00000025    0.00000020    0.00000051
     atom  160 type  1   force =    -0.00000020   -0.00000033   -0.00000036
     atom  161 type  1   force =     0.00000000    0.00000000    0.00000000
     atom  162 type  1   force =     0.00000085    0.00000086   -0.00000153
     atom  163 type  1   force =    -0.00000047    0.00000077   -0.00000061
     atom  164 type  1   force =     0.00000020    0.00000033    0.00000036
     atom  165 type  1   force =    -0.00000197    0.00000014    0.00000044
     atom  166 type  1   force =    -0.00000025    0.00000212    0.00000058
     atom  167 type  1   force =    -0.00000069    0.00000064    0.00000113
     atom  168 type  1   force =     0.00000044    0.00000044    0.00000051
     atom  169 type  1   force =     0.00000000    0.00000000    0.00000000
     atom  170 type  1   force =     0.00000048    0.00000169    0.00000103
     atom  171 type  1   force =     0.00000078    0.00000104    0.00000057
     atom  172 type  1   force =     0.00000156    0.00000096   -0.00000068
     atom  173 type  1   force =     0.00000197   -0.00000014   -0.00000044
     atom  174 type  1   force =     0.00000196    0.00000078   -0.00000016
     atom  175 type  1   force =     0.00000147    0.00000099   -0.00000080
     atom  176 type  1   force =     0.00000194    0.00000091   -0.00000009
     atom  177 type  1   force =     0.00000098    0.00000023   -0.00000081
     atom  178 type  1   force =     0.00000117    0.00000080   -0.00000087
     atom  179 type  1   force =     0.00000052    0.00000035    0.00000046
     atom  180 type  1   force =     0.00000107    0.00000100   -0.00000021
     atom  181 type  1   force =     0.00000177   -0.00000004    0.00000082
     atom  182 type  1   force =     0.00000054   -0.00000028    0.00000073
     atom  183 type  1   force =     0.00000057    0.00000098    0.00000122
     atom  184 type  1   force =     0.00000093    0.00000097    0.00000230
     atom  185 type  1   force =     0.00000136    0.00000193    0.00000093
     atom  186 type  1   force =    -0.00000065    0.00000005    0.00000120
     atom  187 type  1   force =     0.00000113    0.00000136   -0.00000049
     atom  188 type  1   force =     0.00000080    0.00000055   -0.00000125
     atom  189 type  1   force =     0.00000089    0.00000173   -0.00000084
     atom  190 type  1   force =     0.00000092   -0.00000075   -0.00000085
     atom  191 type  1   force =     0.00000188    0.00000039   -0.00000109
     atom  192 type  1   force =     0.00000002    0.00000041   -0.00000087
     atom  193 type  1   force =     0.00000135   -0.00000025    0.00000026
     atom  194 type  1   force =     0.00000044   -0.00000260   -0.00000017
     atom  195 type  1   force =     0.00000066   -0.00000028   -0.00000166
     atom  196 type  1   force =    -0.00000004   -0.00000138   -0.00000019
     atom  197 type  1   force =    -0.00000013    0.00000064   -0.00000071
     atom  198 type  1   force =    -0.00000080   -0.00000030   -0.00000087
     atom  199 type  1   force =    -0.00000149    0.00000043   -0.00000128
     atom  200 type  1   force =    -0.00000202    0.00000042   -0.00000052
     atom  201 type  1   force =    -0.00000323   -0.00000049   -0.00000054
     atom  202 type  1   force =    -0.00000175    0.00000003   -0.00000123
     atom  203 type  1   force =    -0.00000076   -0.00000141    0.00000101
     atom  204 type  1   force =    -0.00000162   -0.00000082   -0.00000154
     atom  205 type  1   force =    -0.00000048   -0.00000292    0.00000102
     atom  206 type  1   force =     0.00000145   -0.00000065    0.00000227
     atom  207 type  1   force =     0.00000077   -0.00000075    0.00000189
     atom  208 type  1   force =     0.00000151   -0.00000189    0.00000240
     atom  209 type  1   force =     0.00000015   -0.00000221    0.00000036
     atom  210 type  1   force =    -0.00000010   -0.00000048   -0.00000080
     atom  211 type  1   force =     0.00000001   -0.00000199    0.00000090
     atom  212 type  1   force =    -0.00000006   -0.00000118    0.00000064
     atom  213 type  1   force =    -0.00000020   -0.00000165    0.00000131
     atom  214 type  1   force =     0.00000128   -0.00000062    0.00000192
     atom  215 type  1   force =    -0.00000122    0.00000057   -0.00000166
     atom  216 type  1   force =     0.00000075   -0.00000174   -0.00000027
     atom  217 type  1   force =    -0.00000141   -0.00000074   -0.00000156
     atom  218 type  1   force =     0.00000101    0.00000174    0.00000020
     atom  219 type  1   force =    -0.00000010    0.00000191    0.00000074
     atom  220 type  1   force =     0.00000088    0.00000154    0.00000105
     atom  221 type  1   force =     0.00000097    0.00000155   -0.00000016
     atom  222 type  1   force =     0.00000030    0.00000139   -0.00000124
     atom  223 type  1   force =     0.00000107   -0.00000136   -0.00000016
     atom  224 type  1   force =    -0.00000008    0.00000149   -0.00000124
     atom  225 type  1   force =    -0.00000096    0.00000143   -0.00000235
     atom  226 type  1   force =    -0.00000132    0.00000094   -0.00000161
     atom  227 type  1   force =     0.00000075    0.00000015    0.00000113
     atom  228 type  1   force =    -0.00000076    0.00000145   -0.00000039
     atom  229 type  1   force =     0.00000095    0.00000006    0.00000096
     atom  230 type  1   force =     0.00000105    0.00000007    0.00000112
     atom  231 type  1   force =     0.00000256   -0.00000024    0.00000064
     atom  232 type  1   force =    -0.00000034    0.00000147    0.00000114
     atom  233 type  1   force =     0.00000075    0.00000117    0.00000152
     atom  234 type  1   force =    -0.00000001   -0.00000144    0.00000114
     atom  235 type  1   force =     0.00000094    0.00000051    0.00000073
     atom  236 type  1   force =    -0.00000012    0.00000082    0.00000064
     atom  237 type  1   force =     0.00000044    0.00000082   -0.00000061
     atom  238 type  1   force =    -0.00000081    0.00000000   -0.00000087
     atom  239 type  1   force =    -0.00000114    0.00000089   -0.00000226
     atom  240 type  1   force =    -0.00000060    0.00000087   -0.00000117
     atom  241 type  1   force =    -0.00000040    0.00000088   -0.00000176
     atom  242 type  1   force =     0.00000021    0.00000233   -0.00000018
     atom  243 type  1   force =     0.00000023    0.00000216    0.00000021
     atom  244 type  1   force =     0.00000083    0.00000115   -0.00000052
     atom  245 type  1   force =    -0.00000096    0.00000105    0.00000045
     atom  246 type  1   force =    -0.00000019    0.00000051   -0.00000188
     atom  247 type  1   force =    -0.00000138   -0.00000044   -0.00000044
     atom  248 type  1   force =    -0.00000200   -0.00000043    0.00000054
     atom  249 type  1   force =    -0.00000260    0.00000030    0.00000104
     atom  250 type  1   force =    -0.00000239   -0.00000028    0.00000032
     atom  251 type  1   force =    -0.00000207   -0.00000108    0.00000172
     atom  252 type  1   force =    -0.00000270   -0.00000155    0.00000054
     atom  253 type  1   force =    -0.00000049    0.00000066    0.00000025
     atom  254 type  1   force =    -0.00000145   -0.00000082    0.00000176
     atom  255 type  1   force =    -0.00000191    0.00000114   -0.00000146
     atom  256 type  1   force =     0.00000035   -0.00000044   -0.00000080

     Total force =     0.000032     Total SCF correction =     0.000310
     SCF correction compared to forces is large: reduce conv_thr to get better values


     entering subroutine stress ...

          total   stress  (Ry/bohr**3)                   (kbar)     P=    1.60
   0.00004127  -0.00002342   0.00003427          6.07     -3.44      5.04
  -0.00002342  -0.00003234   0.00000061         -3.44     -4.76      0.09
   0.00003427   0.00000061   0.00002365          5.04      0.09      3.48


     Writing output data file 4e955e4fb2a28_96d4.save

     init_run     :     61.28s CPU     43.54s WALL (       1 calls)
     electrons    :   1366.42s CPU    997.50s WALL (       1 calls)
     forces       :     25.36s CPU     15.88s WALL (       1 calls)
     stress       :     75.61s CPU     67.19s WALL (       1 calls)

     Called by init_run:
     wfcinit      :     56.01s CPU     39.09s WALL (       1 calls)
     potinit      :      0.94s CPU      0.81s WALL (       1 calls)

     Called by electrons:
     c_bands      :   1248.70s CPU    915.61s WALL (       9 calls)
     sum_band     :     98.53s CPU     67.88s WALL (       9 calls)
     v_of_rho     :      1.27s CPU      1.09s WALL (       9 calls)
     newd         :     15.18s CPU      7.77s WALL (       9 calls)
     mix_rho      :      0.86s CPU      0.82s WALL (       9 calls)

     Called by c_bands:
     init_us_2    :      1.05s CPU      1.13s WALL (      84 calls)
     cegterg      :   1246.31s CPU    913.23s WALL (      37 calls)

     Called by *egterg:
     h_psi        :    534.23s CPU    390.16s WALL (     338 calls)
     s_psi        :    146.68s CPU     77.83s WALL (     338 calls)
     g_psi        :      0.30s CPU      0.30s WALL (     297 calls)
     cdiaghg      :    325.43s CPU    307.34s WALL (     330 calls)

     Called by h_psi:
     add_vuspsi   :    146.13s CPU     78.13s WALL (     338 calls)

     General routines
     calbec       :    205.74s CPU    116.82s WALL (     382 calls)
     fft          :      2.39s CPU      2.23s WALL (     169 calls)
     ffts         :      0.48s CPU      0.47s WALL (     101 calls)
     fftw         :    260.30s CPU    247.92s WALL (  134156 calls)
     interpolate  :      0.30s CPU      0.28s WALL (      18 calls)
     davcio       :      0.00s CPU      0.05s WALL (       4 calls)

     Parallel routines
     fft_scatter  :    238.21s CPU    200.37s WALL (  134426 calls)

     PAW routines
     PAW_pot      :      2.62s CPU      1.54s WALL (       9 calls)
     PAW_ddot     :      0.20s CPU      0.21s WALL (      86 calls)
     PAW_symme    :      0.04s CPU      0.03s WALL (      18 calls)

     PWSCF        : 25m30.06s CPU    18m47.10s WALL


   This run was terminated on:  16:20:43  22Oct2013            

=------------------------------------------------------------------------------=
   JOB DONE.
=------------------------------------------------------------------------------=
Application 6038018 resources: utime ~199013s, stime ~4033s
