
 ========================   JOB MAP   ========================

 Data for node: bb2a3c17	Num procs: 8
 	Process OMPI jobid: [57284,1] Process rank: 0
 	Process OMPI jobid: [57284,1] Process rank: 4
 	Process OMPI jobid: [57284,1] Process rank: 8
 	Process OMPI jobid: [57284,1] Process rank: 12
 	Process OMPI jobid: [57284,1] Process rank: 16
 	Process OMPI jobid: [57284,1] Process rank: 20
 	Process OMPI jobid: [57284,1] Process rank: 24
 	Process OMPI jobid: [57284,1] Process rank: 28

 Data for node: bb2a3c16	Num procs: 8
 	Process OMPI jobid: [57284,1] Process rank: 1
 	Process OMPI jobid: [57284,1] Process rank: 5
 	Process OMPI jobid: [57284,1] Process rank: 9
 	Process OMPI jobid: [57284,1] Process rank: 13
 	Process OMPI jobid: [57284,1] Process rank: 17
 	Process OMPI jobid: [57284,1] Process rank: 21
 	Process OMPI jobid: [57284,1] Process rank: 25
 	Process OMPI jobid: [57284,1] Process rank: 29

 Data for node: bb2a3c07	Num procs: 8
 	Process OMPI jobid: [57284,1] Process rank: 2
 	Process OMPI jobid: [57284,1] Process rank: 6
 	Process OMPI jobid: [57284,1] Process rank: 10
 	Process OMPI jobid: [57284,1] Process rank: 14
 	Process OMPI jobid: [57284,1] Process rank: 18
 	Process OMPI jobid: [57284,1] Process rank: 22
 	Process OMPI jobid: [57284,1] Process rank: 26
 	Process OMPI jobid: [57284,1] Process rank: 30

 Data for node: bb2a3a14	Num procs: 8
 	Process OMPI jobid: [57284,1] Process rank: 3
 	Process OMPI jobid: [57284,1] Process rank: 7
 	Process OMPI jobid: [57284,1] Process rank: 11
 	Process OMPI jobid: [57284,1] Process rank: 15
 	Process OMPI jobid: [57284,1] Process rank: 19
 	Process OMPI jobid: [57284,1] Process rank: 23
 	Process OMPI jobid: [57284,1] Process rank: 27
 	Process OMPI jobid: [57284,1] Process rank: 31

 =============================================================

     Program PWSCF v.5.0.2 (svn rev. 9392) starts on  5Oct2013 at  0:44:50 

     This program is part of the open-source Quantum ESPRESSO suite
     for quantum simulation of materials; please cite
         "P. Giannozzi et al., J. Phys.:Condens. Matter 21 395502 (2009);
          URL http://www.quantum-espresso.org", 
     in publications or presentations arising from this work. More details at
     http://www.quantum-espresso.org/quote.php

     Parallel version (MPI), running on    32 processors
     R & G space division:  proc/nbgrp/npool/nimage =      32

     Current dimensions of program PWSCF are:
     Max number of different atomic species (ntypx) = 10
     Max number of k-points (npk) =  40000
     Max angular momentum in pseudopotentials (lmaxx) =  3
     Reading input from /gpfs/bb/bxp912/pwscf/input_4e7ed6a544bfd_874c.in
               file Al.pbe-n-kjpaw_psl.0.1.UPF: wavefunction(s)  3S renormalized

     Subspace diagonalization in iterative solution of the eigenvalue problem:
     a serial algorithm will be used

     Found symmetry operation: I + (  0.1250  0.1250  0.0000)
     This is a supercell, fractional translations are disabled
 
     Parallelization info
     --------------------
     sticks:   dense  smooth     PW     G-vecs:    dense   smooth      PW
     Min         464     313     81                42728    23587    3093
     Max         465     314     82                42737    23621    3096
     Sum       14873   10029   2593              1367449   755285   98985
 


     bravais-lattice index     =           14
     lattice parameter (alat)  =      30.0000  a.u.
     unit-cell volume          =   27000.0000 (a.u.)^3
     number of atoms/cell      =          256
     number of atomic types    =            1
     number of electrons       =       768.00
     number of Kohn-Sham states=          461
     kinetic-energy cutoff     =      35.0000  Ry
     charge density cutoff     =     208.0000  Ry
     convergence threshold     =      1.0E-07
     mixing beta               =       0.7000
     number of iterations used =            8  plain     mixing
     Exchange-correlation      =  SLA  PW   PBX  PBC ( 1 4 3 4 0)
     EXX-fraction              =        0.00
     nstep                     =          200


     celldm(1)=  30.000000  celldm(2)=   1.000000  celldm(3)=   1.000000
     celldm(4)=   0.000000  celldm(5)=   0.000000  celldm(6)=   0.000000

     crystal axes: (cart. coord. in units of alat)
               a(1) = (   1.000000   0.000000   0.000000 )  
               a(2) = (   0.000000   1.000000   0.000000 )  
               a(3) = (   0.000000   0.000000   1.000000 )  

     reciprocal axes: (cart. coord. in units 2 pi/alat)
               b(1) = (  1.000000  0.000000  0.000000 )  
               b(2) = (  0.000000  1.000000  0.000000 )  
               b(3) = (  0.000000  0.000000  1.000000 )  


     PseudoPot. # 1 for Al read from file:
     /gpfs/bb/bxp912/pseudopotentials/Al.pbe-n-kjpaw_psl.0.1.UPF
     MD5 check sum: c290c600b2b3f4e95cb15d62bc64d19d
     Pseudo is Projector augmented-wave + core cor, Zval =  3.0
     Generated using "atomic" code by A. Dal Corso  v.5.0.2 svn rev. 9392
     Shape of augmentation charge: PSQ
     Using radial grid of 1135 points,  4 beta functions with: 
                l(1) =   0
                l(2) =   0
                l(3) =   1
                l(4) =   1
     Q(r) pseudized with 0 coefficients 


     atomic species   valence    mass     pseudopotential
        N              3.00    26.98154     Al( 1.00)

     48 Sym. Ops., with inversion, found



   Cartesian axes

     site n.     atom                  positions (alat units)
         1           N   tau(   1) = (   0.0000000   0.0000000   0.0000000  )
         2           N   tau(   2) = (   0.1250000   0.1250000   0.0000000  )
         3           N   tau(   3) = (   0.1250000   0.0000000   0.1250000  )
         4           N   tau(   4) = (   0.0000000   0.1250000   0.1250000  )
         5           N   tau(   5) = (   0.2500000   0.0000000   0.0000000  )
         6           N   tau(   6) = (   0.2500000   0.1250000   0.1250000  )
         7           N   tau(   7) = (   0.3750000   0.1250000   0.0000000  )
         8           N   tau(   8) = (   0.3750000   0.0000000   0.1250000  )
         9           N   tau(   9) = (   0.0000000   0.0000000   0.2500000  )
        10           N   tau(  10) = (   0.1250000   0.1250000   0.2500000  )
        11           N   tau(  11) = (   0.1250000   0.0000000   0.3750000  )
        12           N   tau(  12) = (   0.0000000   0.1250000   0.3750000  )
        13           N   tau(  13) = (   0.0000000   0.0000000   0.5000000  )
        14           N   tau(  14) = (   0.1250000   0.1250000   0.5000000  )
        15           N   tau(  15) = (   0.1250000   0.0000000   0.6250000  )
        16           N   tau(  16) = (   0.0000000   0.1250000   0.6250000  )
        17           N   tau(  17) = (   0.0000000   0.0000000   0.7500000  )
        18           N   tau(  18) = (   0.1250000   0.1250000   0.7500000  )
        19           N   tau(  19) = (   0.1250000   0.0000000   0.8750000  )
        20           N   tau(  20) = (   0.0000000   0.1250000   0.8750000  )
        21           N   tau(  21) = (   0.0000000   0.2500000   0.0000000  )
        22           N   tau(  22) = (   0.1250000   0.3750000   0.0000000  )
        23           N   tau(  23) = (   0.1250000   0.2500000   0.1250000  )
        24           N   tau(  24) = (   0.0000000   0.3750000   0.1250000  )
        25           N   tau(  25) = (   0.0000000   0.2500000   0.2500000  )
        26           N   tau(  26) = (   0.1250000   0.3750000   0.2500000  )
        27           N   tau(  27) = (   0.1250000   0.2500000   0.3750000  )
        28           N   tau(  28) = (   0.0000000   0.3750000   0.3750000  )
        29           N   tau(  29) = (   0.0000000   0.2500000   0.5000000  )
        30           N   tau(  30) = (   0.1250000   0.3750000   0.5000000  )
        31           N   tau(  31) = (   0.1250000   0.2500000   0.6250000  )
        32           N   tau(  32) = (   0.0000000   0.3750000   0.6250000  )
        33           N   tau(  33) = (   0.0000000   0.2500000   0.7500000  )
        34           N   tau(  34) = (   0.1250000   0.3750000   0.7500000  )
        35           N   tau(  35) = (   0.1250000   0.2500000   0.8750000  )
        36           N   tau(  36) = (   0.0000000   0.3750000   0.8750000  )
        37           N   tau(  37) = (   0.0000000   0.5000000   0.0000000  )
        38           N   tau(  38) = (   0.1250000   0.6250000   0.0000000  )
        39           N   tau(  39) = (   0.1250000   0.5000000   0.1250000  )
        40           N   tau(  40) = (   0.0000000   0.6250000   0.1250000  )
        41           N   tau(  41) = (   0.0000000   0.5000000   0.2500000  )
        42           N   tau(  42) = (   0.1250000   0.6250000   0.2500000  )
        43           N   tau(  43) = (   0.1250000   0.5000000   0.3750000  )
        44           N   tau(  44) = (   0.0000000   0.6250000   0.3750000  )
        45           N   tau(  45) = (   0.0000000   0.5000000   0.5000000  )
        46           N   tau(  46) = (   0.1250000   0.6250000   0.5000000  )
        47           N   tau(  47) = (   0.1250000   0.5000000   0.6250000  )
        48           N   tau(  48) = (   0.0000000   0.6250000   0.6250000  )
        49           N   tau(  49) = (   0.0000000   0.5000000   0.7500000  )
        50           N   tau(  50) = (   0.1250000   0.6250000   0.7500000  )
        51           N   tau(  51) = (   0.1250000   0.5000000   0.8750000  )
        52           N   tau(  52) = (   0.0000000   0.6250000   0.8750000  )
        53           N   tau(  53) = (   0.0000000   0.7500000   0.0000000  )
        54           N   tau(  54) = (   0.1250000   0.8750000   0.0000000  )
        55           N   tau(  55) = (   0.1250000   0.7500000   0.1250000  )
        56           N   tau(  56) = (   0.0000000   0.8750000   0.1250000  )
        57           N   tau(  57) = (   0.0000000   0.7500000   0.2500000  )
        58           N   tau(  58) = (   0.1250000   0.8750000   0.2500000  )
        59           N   tau(  59) = (   0.1250000   0.7500000   0.3750000  )
        60           N   tau(  60) = (   0.0000000   0.8750000   0.3750000  )
        61           N   tau(  61) = (   0.0000000   0.7500000   0.5000000  )
        62           N   tau(  62) = (   0.1250000   0.8750000   0.5000000  )
        63           N   tau(  63) = (   0.1250000   0.7500000   0.6250000  )
        64           N   tau(  64) = (   0.0000000   0.8750000   0.6250000  )
        65           N   tau(  65) = (   0.0000000   0.7500000   0.7500000  )
        66           N   tau(  66) = (   0.1250000   0.8750000   0.7500000  )
        67           N   tau(  67) = (   0.1250000   0.7500000   0.8750000  )
        68           N   tau(  68) = (   0.0000000   0.8750000   0.8750000  )
        69           N   tau(  69) = (   0.2500000   0.0000000   0.2500000  )
        70           N   tau(  70) = (   0.3750000   0.1250000   0.2500000  )
        71           N   tau(  71) = (   0.3750000   0.0000000   0.3750000  )
        72           N   tau(  72) = (   0.2500000   0.1250000   0.3750000  )
        73           N   tau(  73) = (   0.2500000   0.0000000   0.5000000  )
        74           N   tau(  74) = (   0.3750000   0.1250000   0.5000000  )
        75           N   tau(  75) = (   0.3750000   0.0000000   0.6250000  )
        76           N   tau(  76) = (   0.2500000   0.1250000   0.6250000  )
        77           N   tau(  77) = (   0.2500000   0.0000000   0.7500000  )
        78           N   tau(  78) = (   0.3750000   0.1250000   0.7500000  )
        79           N   tau(  79) = (   0.3750000   0.0000000   0.8750000  )
        80           N   tau(  80) = (   0.2500000   0.1250000   0.8750000  )
        81           N   tau(  81) = (   0.2500000   0.2500000   0.0000000  )
        82           N   tau(  82) = (   0.3750000   0.3750000   0.0000000  )
        83           N   tau(  83) = (   0.3750000   0.2500000   0.1250000  )
        84           N   tau(  84) = (   0.2500000   0.3750000   0.1250000  )
        85           N   tau(  85) = (   0.2500000   0.2500000   0.2500000  )
        86           N   tau(  86) = (   0.3750000   0.3750000   0.2500000  )
        87           N   tau(  87) = (   0.3750000   0.2500000   0.3750000  )
        88           N   tau(  88) = (   0.2500000   0.3750000   0.3750000  )
        89           N   tau(  89) = (   0.2500000   0.2500000   0.5000000  )
        90           N   tau(  90) = (   0.3750000   0.3750000   0.5000000  )
        91           N   tau(  91) = (   0.3750000   0.2500000   0.6250000  )
        92           N   tau(  92) = (   0.2500000   0.3750000   0.6250000  )
        93           N   tau(  93) = (   0.2500000   0.2500000   0.7500000  )
        94           N   tau(  94) = (   0.3750000   0.3750000   0.7500000  )
        95           N   tau(  95) = (   0.3750000   0.2500000   0.8750000  )
        96           N   tau(  96) = (   0.2500000   0.3750000   0.8750000  )
        97           N   tau(  97) = (   0.2500000   0.5000000   0.0000000  )
        98           N   tau(  98) = (   0.3750000   0.6250000   0.0000000  )
        99           N   tau(  99) = (   0.3750000   0.5000000   0.1250000  )
       100           N   tau( 100) = (   0.2500000   0.6250000   0.1250000  )
       101           N   tau( 101) = (   0.2500000   0.5000000   0.2500000  )
       102           N   tau( 102) = (   0.3750000   0.6250000   0.2500000  )
       103           N   tau( 103) = (   0.3750000   0.5000000   0.3750000  )
       104           N   tau( 104) = (   0.2500000   0.6250000   0.3750000  )
       105           N   tau( 105) = (   0.2500000   0.5000000   0.5000000  )
       106           N   tau( 106) = (   0.3750000   0.6250000   0.5000000  )
       107           N   tau( 107) = (   0.3750000   0.5000000   0.6250000  )
       108           N   tau( 108) = (   0.2500000   0.6250000   0.6250000  )
       109           N   tau( 109) = (   0.2500000   0.5000000   0.7500000  )
       110           N   tau( 110) = (   0.3750000   0.6250000   0.7500000  )
       111           N   tau( 111) = (   0.3750000   0.5000000   0.8750000  )
       112           N   tau( 112) = (   0.2500000   0.6250000   0.8750000  )
       113           N   tau( 113) = (   0.2500000   0.7500000   0.0000000  )
       114           N   tau( 114) = (   0.3750000   0.8750000   0.0000000  )
       115           N   tau( 115) = (   0.3750000   0.7500000   0.1250000  )
       116           N   tau( 116) = (   0.2500000   0.8750000   0.1250000  )
       117           N   tau( 117) = (   0.2500000   0.7500000   0.2500000  )
       118           N   tau( 118) = (   0.3750000   0.8750000   0.2500000  )
       119           N   tau( 119) = (   0.3750000   0.7500000   0.3750000  )
       120           N   tau( 120) = (   0.2500000   0.8750000   0.3750000  )
       121           N   tau( 121) = (   0.2500000   0.7500000   0.5000000  )
       122           N   tau( 122) = (   0.3750000   0.8750000   0.5000000  )
       123           N   tau( 123) = (   0.3750000   0.7500000   0.6250000  )
       124           N   tau( 124) = (   0.2500000   0.8750000   0.6250000  )
       125           N   tau( 125) = (   0.2500000   0.7500000   0.7500000  )
       126           N   tau( 126) = (   0.3750000   0.8750000   0.7500000  )
       127           N   tau( 127) = (   0.3750000   0.7500000   0.8750000  )
       128           N   tau( 128) = (   0.2500000   0.8750000   0.8750000  )
       129           N   tau( 129) = (   0.5000000   0.0000000   0.0000000  )
       130           N   tau( 130) = (   0.6250000   0.1250000   0.0000000  )
       131           N   tau( 131) = (   0.6250000   0.0000000   0.1250000  )
       132           N   tau( 132) = (   0.5000000   0.1250000   0.1250000  )
       133           N   tau( 133) = (   0.5000000   0.0000000   0.2500000  )
       134           N   tau( 134) = (   0.6250000   0.1250000   0.2500000  )
       135           N   tau( 135) = (   0.6250000   0.0000000   0.3750000  )
       136           N   tau( 136) = (   0.5000000   0.1250000   0.3750000  )
       137           N   tau( 137) = (   0.5000000   0.0000000   0.5000000  )
       138           N   tau( 138) = (   0.6250000   0.1250000   0.5000000  )
       139           N   tau( 139) = (   0.6250000   0.0000000   0.6250000  )
       140           N   tau( 140) = (   0.5000000   0.1250000   0.6250000  )
       141           N   tau( 141) = (   0.5000000   0.0000000   0.7500000  )
       142           N   tau( 142) = (   0.6250000   0.1250000   0.7500000  )
       143           N   tau( 143) = (   0.6250000   0.0000000   0.8750000  )
       144           N   tau( 144) = (   0.5000000   0.1250000   0.8750000  )
       145           N   tau( 145) = (   0.5000000   0.2500000   0.0000000  )
       146           N   tau( 146) = (   0.6250000   0.3750000   0.0000000  )
       147           N   tau( 147) = (   0.6250000   0.2500000   0.1250000  )
       148           N   tau( 148) = (   0.5000000   0.3750000   0.1250000  )
       149           N   tau( 149) = (   0.5000000   0.2500000   0.2500000  )
       150           N   tau( 150) = (   0.6250000   0.3750000   0.2500000  )
       151           N   tau( 151) = (   0.6250000   0.2500000   0.3750000  )
       152           N   tau( 152) = (   0.5000000   0.3750000   0.3750000  )
       153           N   tau( 153) = (   0.5000000   0.2500000   0.5000000  )
       154           N   tau( 154) = (   0.6250000   0.3750000   0.5000000  )
       155           N   tau( 155) = (   0.6250000   0.2500000   0.6250000  )
       156           N   tau( 156) = (   0.5000000   0.3750000   0.6250000  )
       157           N   tau( 157) = (   0.5000000   0.2500000   0.7500000  )
       158           N   tau( 158) = (   0.6250000   0.3750000   0.7500000  )
       159           N   tau( 159) = (   0.6250000   0.2500000   0.8750000  )
       160           N   tau( 160) = (   0.5000000   0.3750000   0.8750000  )
       161           N   tau( 161) = (   0.5000000   0.5000000   0.0000000  )
       162           N   tau( 162) = (   0.6250000   0.6250000   0.0000000  )
       163           N   tau( 163) = (   0.6250000   0.5000000   0.1250000  )
       164           N   tau( 164) = (   0.5000000   0.6250000   0.1250000  )
       165           N   tau( 165) = (   0.5000000   0.5000000   0.2500000  )
       166           N   tau( 166) = (   0.6250000   0.6250000   0.2500000  )
       167           N   tau( 167) = (   0.6250000   0.5000000   0.3750000  )
       168           N   tau( 168) = (   0.5000000   0.6250000   0.3750000  )
       169           N   tau( 169) = (   0.5000000   0.5000000   0.5000000  )
       170           N   tau( 170) = (   0.6250000   0.6250000   0.5000000  )
       171           N   tau( 171) = (   0.6250000   0.5000000   0.6250000  )
       172           N   tau( 172) = (   0.5000000   0.6250000   0.6250000  )
       173           N   tau( 173) = (   0.5000000   0.5000000   0.7500000  )
       174           N   tau( 174) = (   0.6250000   0.6250000   0.7500000  )
       175           N   tau( 175) = (   0.6250000   0.5000000   0.8750000  )
       176           N   tau( 176) = (   0.5000000   0.6250000   0.8750000  )
       177           N   tau( 177) = (   0.5000000   0.7500000   0.0000000  )
       178           N   tau( 178) = (   0.6250000   0.8750000   0.0000000  )
       179           N   tau( 179) = (   0.6250000   0.7500000   0.1250000  )
       180           N   tau( 180) = (   0.5000000   0.8750000   0.1250000  )
       181           N   tau( 181) = (   0.5000000   0.7500000   0.2500000  )
       182           N   tau( 182) = (   0.6250000   0.8750000   0.2500000  )
       183           N   tau( 183) = (   0.6250000   0.7500000   0.3750000  )
       184           N   tau( 184) = (   0.5000000   0.8750000   0.3750000  )
       185           N   tau( 185) = (   0.5000000   0.7500000   0.5000000  )
       186           N   tau( 186) = (   0.6250000   0.8750000   0.5000000  )
       187           N   tau( 187) = (   0.6250000   0.7500000   0.6250000  )
       188           N   tau( 188) = (   0.5000000   0.8750000   0.6250000  )
       189           N   tau( 189) = (   0.5000000   0.7500000   0.7500000  )
       190           N   tau( 190) = (   0.6250000   0.8750000   0.7500000  )
       191           N   tau( 191) = (   0.6250000   0.7500000   0.8750000  )
       192           N   tau( 192) = (   0.5000000   0.8750000   0.8750000  )
       193           N   tau( 193) = (   0.7500000   0.0000000   0.0000000  )
       194           N   tau( 194) = (   0.8750000   0.1250000   0.0000000  )
       195           N   tau( 195) = (   0.8750000   0.0000000   0.1250000  )
       196           N   tau( 196) = (   0.7500000   0.1250000   0.1250000  )
       197           N   tau( 197) = (   0.7500000   0.0000000   0.2500000  )
       198           N   tau( 198) = (   0.8750000   0.1250000   0.2500000  )
       199           N   tau( 199) = (   0.8750000   0.0000000   0.3750000  )
       200           N   tau( 200) = (   0.7500000   0.1250000   0.3750000  )
       201           N   tau( 201) = (   0.7500000   0.0000000   0.5000000  )
       202           N   tau( 202) = (   0.8750000   0.1250000   0.5000000  )
       203           N   tau( 203) = (   0.8750000   0.0000000   0.6250000  )
       204           N   tau( 204) = (   0.7500000   0.1250000   0.6250000  )
       205           N   tau( 205) = (   0.7500000   0.0000000   0.7500000  )
       206           N   tau( 206) = (   0.8750000   0.1250000   0.7500000  )
       207           N   tau( 207) = (   0.8750000   0.0000000   0.8750000  )
       208           N   tau( 208) = (   0.7500000   0.1250000   0.8750000  )
       209           N   tau( 209) = (   0.7500000   0.2500000   0.0000000  )
       210           N   tau( 210) = (   0.8750000   0.3750000   0.0000000  )
       211           N   tau( 211) = (   0.8750000   0.2500000   0.1250000  )
       212           N   tau( 212) = (   0.7500000   0.3750000   0.1250000  )
       213           N   tau( 213) = (   0.7500000   0.2500000   0.2500000  )
       214           N   tau( 214) = (   0.8750000   0.3750000   0.2500000  )
       215           N   tau( 215) = (   0.8750000   0.2500000   0.3750000  )
       216           N   tau( 216) = (   0.7500000   0.3750000   0.3750000  )
       217           N   tau( 217) = (   0.7500000   0.2500000   0.5000000  )
       218           N   tau( 218) = (   0.8750000   0.3750000   0.5000000  )
       219           N   tau( 219) = (   0.8750000   0.2500000   0.6250000  )
       220           N   tau( 220) = (   0.7500000   0.3750000   0.6250000  )
       221           N   tau( 221) = (   0.7500000   0.2500000   0.7500000  )
       222           N   tau( 222) = (   0.8750000   0.3750000   0.7500000  )
       223           N   tau( 223) = (   0.8750000   0.2500000   0.8750000  )
       224           N   tau( 224) = (   0.7500000   0.3750000   0.8750000  )
       225           N   tau( 225) = (   0.7500000   0.5000000   0.0000000  )
       226           N   tau( 226) = (   0.8750000   0.6250000   0.0000000  )
       227           N   tau( 227) = (   0.8750000   0.5000000   0.1250000  )
       228           N   tau( 228) = (   0.7500000   0.6250000   0.1250000  )
       229           N   tau( 229) = (   0.7500000   0.5000000   0.2500000  )
       230           N   tau( 230) = (   0.8750000   0.6250000   0.2500000  )
       231           N   tau( 231) = (   0.8750000   0.5000000   0.3750000  )
       232           N   tau( 232) = (   0.7500000   0.6250000   0.3750000  )
       233           N   tau( 233) = (   0.7500000   0.5000000   0.5000000  )
       234           N   tau( 234) = (   0.8750000   0.6250000   0.5000000  )
       235           N   tau( 235) = (   0.8750000   0.5000000   0.6250000  )
       236           N   tau( 236) = (   0.7500000   0.6250000   0.6250000  )
       237           N   tau( 237) = (   0.7500000   0.5000000   0.7500000  )
       238           N   tau( 238) = (   0.8750000   0.6250000   0.7500000  )
       239           N   tau( 239) = (   0.8750000   0.5000000   0.8750000  )
       240           N   tau( 240) = (   0.7500000   0.6250000   0.8750000  )
       241           N   tau( 241) = (   0.7500000   0.7500000   0.0000000  )
       242           N   tau( 242) = (   0.8750000   0.8750000   0.0000000  )
       243           N   tau( 243) = (   0.8750000   0.7500000   0.1250000  )
       244           N   tau( 244) = (   0.7500000   0.8750000   0.1250000  )
       245           N   tau( 245) = (   0.7500000   0.7500000   0.2500000  )
       246           N   tau( 246) = (   0.8750000   0.8750000   0.2500000  )
       247           N   tau( 247) = (   0.8750000   0.7500000   0.3750000  )
       248           N   tau( 248) = (   0.7500000   0.8750000   0.3750000  )
       249           N   tau( 249) = (   0.7500000   0.7500000   0.5000000  )
       250           N   tau( 250) = (   0.8750000   0.8750000   0.5000000  )
       251           N   tau( 251) = (   0.8750000   0.7500000   0.6250000  )
       252           N   tau( 252) = (   0.7500000   0.8750000   0.6250000  )
       253           N   tau( 253) = (   0.7500000   0.7500000   0.7500000  )
       254           N   tau( 254) = (   0.8750000   0.8750000   0.7500000  )
       255           N   tau( 255) = (   0.8750000   0.7500000   0.8750000  )
       256           N   tau( 256) = (   0.7500000   0.8750000   0.8750000  )

     number of k points=     1  Marzari-Vanderbilt smearing, width (Ry)=  0.0500
                       cart. coord. in units 2pi/alat
        k(    1) = (   0.2500000   0.2500000   0.2500000), wk =   2.0000000

     Dense  grid:  1367449 G-vectors     FFT dimensions: ( 144, 144, 144)

     Smooth grid:   755285 G-vectors     FFT dimensions: ( 120, 120, 120)

     Largest allocated arrays     est. size (Mb)     dimensions
        Kohn-Sham Wavefunctions        20.65 Mb     (   2936,  461)
        NL pseudopotentials            91.75 Mb     (   2936, 2048)
        Each V/rho on FFT grid          1.58 Mb     ( 103680)
        Each G-vector array             0.33 Mb     (  42730)
        G-vector shells                 0.33 Mb     (  42730)
     Largest temporary arrays     est. size (Mb)     dimensions
        Auxiliary wavefunctions        82.61 Mb     (   2936, 1844)
        Each subspace H/S matrix       51.89 Mb     (1844,1844)
        Each <psi_i|beta_j> matrix     14.41 Mb     (   2048,  461)
        Arrays for rho mixing          12.66 Mb     ( 103680,   8)

     Check: negative/imaginary core charge=   -0.000006    0.000000

     Initial potential from superposition of free atoms

     starting charge  767.41368, renormalised to  768.00000
     Starting wfc are 1024 randomized atomic wfcs
     Checking if some PAW data can be deallocated... 

     total cpu time spent up to now is       25.9 secs

     Self-consistent Calculation

     iteration #  1     ecut=    35.00 Ry     beta=0.70
     Davidson diagonalization with overlap
     ethr =  1.00E-02,  avg # of iterations =  3.0

     Threshold (ethr) on eigenvalues was too large:
     Diagonalizing with lowered threshold

     Davidson diagonalization with overlap
     ethr =  1.92E-04,  avg # of iterations =  6.0

     total cpu time spent up to now is      113.7 secs

     total energy              =  -10112.56812850 Ry
     Harris-Foulkes estimate   =  -10112.90904939 Ry
     estimated scf accuracy    <       1.40151551 Ry

     iteration #  2     ecut=    35.00 Ry     beta=0.70
     Davidson diagonalization with overlap
     ethr =  1.82E-04,  avg # of iterations =  1.0

     total cpu time spent up to now is      140.2 secs

     total energy              =  -10112.55584387 Ry
     Harris-Foulkes estimate   =  -10112.58587158 Ry
     estimated scf accuracy    <       0.11182619 Ry

     iteration #  3     ecut=    35.00 Ry     beta=0.70
     Davidson diagonalization with overlap
     ethr =  1.46E-05,  avg # of iterations =  4.0

     total cpu time spent up to now is      175.7 secs

     total energy              =  -10112.55922352 Ry
     Harris-Foulkes estimate   =  -10112.57316909 Ry
     estimated scf accuracy    <       0.16121393 Ry

     iteration #  4     ecut=    35.00 Ry     beta=0.70
     Davidson diagonalization with overlap
     ethr =  1.46E-05,  avg # of iterations =  2.0

     total cpu time spent up to now is      203.9 secs

     total energy              =  -10112.56621277 Ry
     Harris-Foulkes estimate   =  -10112.56714687 Ry
     estimated scf accuracy    <       0.00354784 Ry

     iteration #  5     ecut=    35.00 Ry     beta=0.70
     Davidson diagonalization with overlap
     ethr =  4.62E-07,  avg # of iterations = 12.0

     total cpu time spent up to now is      310.5 secs

     total energy              =  -10112.56767465 Ry
     Harris-Foulkes estimate   =  -10112.56855823 Ry
     estimated scf accuracy    <       0.00524390 Ry

     iteration #  6     ecut=    35.00 Ry     beta=0.70
     Davidson diagonalization with overlap
     ethr =  4.62E-07,  avg # of iterations =  4.0

     total cpu time spent up to now is      348.6 secs

     total energy              =  -10112.56756293 Ry
     Harris-Foulkes estimate   =  -10112.56879324 Ry
     estimated scf accuracy    <       0.00863886 Ry

     iteration #  7     ecut=    35.00 Ry     beta=0.70
     Davidson diagonalization with overlap
     ethr =  4.62E-07,  avg # of iterations =  3.0

     total cpu time spent up to now is      382.6 secs

     total energy              =  -10112.56812196 Ry
     Harris-Foulkes estimate   =  -10112.56818685 Ry
     estimated scf accuracy    <       0.00133312 Ry

     iteration #  8     ecut=    35.00 Ry     beta=0.70
     Davidson diagonalization with overlap
     ethr =  1.74E-07,  avg # of iterations =  2.0

     total cpu time spent up to now is      411.0 secs

     total energy              =  -10112.57905335 Ry
     Harris-Foulkes estimate   =  -10112.56815102 Ry
     estimated scf accuracy    <       0.00077482 Ry

     iteration #  9     ecut=    35.00 Ry     beta=0.70
     Davidson diagonalization with overlap
     ethr =  1.01E-07,  avg # of iterations =  6.0

     total cpu time spent up to now is      475.2 secs

     total energy              =  -10112.55823735 Ry
     Harris-Foulkes estimate   =  -10112.58756766 Ry
     estimated scf accuracy    <       0.28187362 Ry

     iteration # 10     ecut=    35.00 Ry     beta=0.70
     Davidson diagonalization with overlap
     ethr =  1.01E-07,  avg # of iterations =  6.0

     total cpu time spent up to now is      539.9 secs

     total energy              =  -10112.56810487 Ry
     Harris-Foulkes estimate   =  -10112.56812047 Ry
     estimated scf accuracy    <       0.00018828 Ry

     iteration # 11     ecut=    35.00 Ry     beta=0.70
     Davidson diagonalization with overlap
     ethr =  2.45E-08,  avg # of iterations =  6.0

     total cpu time spent up to now is      573.8 secs

     total energy              =  -10112.56810874 Ry
     Harris-Foulkes estimate   =  -10112.56811059 Ry
     estimated scf accuracy    <       0.00002817 Ry

     iteration # 12     ecut=    35.00 Ry     beta=0.70
     Davidson diagonalization with overlap
     ethr =  3.67E-09,  avg # of iterations = 18.0

     total cpu time spent up to now is      638.4 secs

     total energy              =  -10112.56811177 Ry
     Harris-Foulkes estimate   =  -10112.56811173 Ry
     estimated scf accuracy    <       0.00000835 Ry

     iteration # 13     ecut=    35.00 Ry     beta=0.70
     Davidson diagonalization with overlap
     ethr =  1.09E-09,  avg # of iterations =  3.0

     total cpu time spent up to now is      669.1 secs

     total energy              =  -10112.56811188 Ry
     Harris-Foulkes estimate   =  -10112.56811228 Ry
     estimated scf accuracy    <       0.00001252 Ry

     iteration # 14     ecut=    35.00 Ry     beta=0.70
     Davidson diagonalization with overlap
     ethr =  1.09E-09,  avg # of iterations =  1.0

     total cpu time spent up to now is      695.9 secs

     total energy              =  -10112.56811150 Ry
     Harris-Foulkes estimate   =  -10112.56811201 Ry
     estimated scf accuracy    <       0.00000906 Ry

     iteration # 15     ecut=    35.00 Ry     beta=0.70
     Davidson diagonalization with overlap
     ethr =  1.09E-09,  avg # of iterations =  1.0

     total cpu time spent up to now is      722.7 secs

     total energy              =  -10112.56811179 Ry
     Harris-Foulkes estimate   =  -10112.56811171 Ry
     estimated scf accuracy    <       0.00000482 Ry

     iteration # 16     ecut=    35.00 Ry     beta=0.70
     Davidson diagonalization with overlap
     ethr =  6.27E-10,  avg # of iterations =  1.0

     total cpu time spent up to now is      749.7 secs

     total energy              =  -10112.56811123 Ry
     Harris-Foulkes estimate   =  -10112.56811187 Ry
     estimated scf accuracy    <       0.00000612 Ry

     iteration # 17     ecut=    35.00 Ry     beta=0.70
     Davidson diagonalization with overlap
     ethr =  6.27E-10,  avg # of iterations =  3.0

     total cpu time spent up to now is      781.0 secs

     total energy              =  -10112.56811151 Ry
     Harris-Foulkes estimate   =  -10112.56811164 Ry
     estimated scf accuracy    <       0.00000057 Ry

     iteration # 18     ecut=    35.00 Ry     beta=0.70
     Davidson diagonalization with overlap
     ethr =  7.43E-11,  avg # of iterations =  5.0

     total cpu time spent up to now is      824.1 secs

     total energy              =  -10112.56811159 Ry
     Harris-Foulkes estimate   =  -10112.56811163 Ry
     estimated scf accuracy    <       0.00000013 Ry

     iteration # 19     ecut=    35.00 Ry     beta=0.70
     Davidson diagonalization with overlap
     ethr =  1.69E-11,  avg # of iterations =  4.0

     total cpu time spent up to now is      863.8 secs

     total energy              =  -10112.56811160 Ry
     Harris-Foulkes estimate   =  -10112.56811163 Ry
     estimated scf accuracy    <       0.00000013 Ry

     iteration # 20     ecut=    35.00 Ry     beta=0.70
     Davidson diagonalization with overlap
     ethr =  1.69E-11,  avg # of iterations =  2.0

     total cpu time spent up to now is      893.0 secs

     End of self-consistent calculation

          k = 0.2500 0.2500 0.2500 ( 94341 PWs)   bands (ev):

    -2.9314  -2.6383  -2.6383  -2.6383  -2.3458  -2.3458  -2.3458  -2.0540
    -2.0540  -2.0540  -2.0540  -1.7627  -1.7627  -1.7627  -1.7627  -1.7627
    -1.7627  -1.4721  -1.4721  -1.4721  -1.1822  -1.1822  -1.1822  -1.1821
    -1.1821  -1.1821  -0.8928  -0.8928  -0.8928  -0.8928  -0.8928  -0.8928
    -0.8927  -0.8927  -0.8927  -0.6041  -0.6041  -0.6041  -0.3159  -0.3159
    -0.3159  -0.3159  -0.3159  -0.3159  -0.3158  -0.0289  -0.0289  -0.0289
    -0.0283  -0.0283  -0.0283  -0.0283  -0.0283  -0.0283   0.2580   0.2580
     0.2580   0.2580   0.2580   0.2580   0.5443   0.5443   0.5443   0.5448
     0.5448   0.5448   0.5450   0.5450   0.5450   0.8300   0.8300   0.8300
     0.8300   0.8300   0.8300   0.8306   0.8306   0.8306   1.1151   1.1151
     1.1151   1.1151   1.1151   1.1151   1.3967   1.3967   1.3967   1.4001
     1.4001   1.4001   1.6804   1.6804   1.6804   1.6804   1.6804   1.6804
     1.6833   1.6833   1.6833   1.6833   1.6833   1.6833   1.6833   1.6833
     1.6833   1.9635   1.9635   1.9635   1.9664   1.9664   1.9664   1.9664
     1.9664   1.9664   2.2461   2.2461   2.2461   2.2461   2.2461   2.2461
     2.2486   2.5277   2.5277   2.5277   2.5277   2.5277   2.5277   2.5297
     2.5297   2.5297   2.5297   2.5297   2.5297   2.8115   2.8115   2.8115
     3.0763   3.0763   3.0763   3.0879   3.0879   3.0879   3.0895   3.0895
     3.0895   3.0895   3.0895   3.0895   3.0906   3.0906   3.0906   3.3557
     3.3557   3.3557   3.3557   3.3557   3.3557   3.3571   3.3571   3.3571
     3.3677   3.3677   3.3677   3.3677   3.3677   3.3677   3.6343   3.6343
     3.6343   3.6344   3.6344   3.6344   3.9090   3.9090   3.9090   3.9090
     3.9090   3.9090   3.9126   3.9126   3.9126   3.9126   3.9126   3.9126
     4.1882   4.1882   4.1882   4.1882   4.1882   4.1882   4.2029   4.2029
     4.2029   4.2029   4.2029   4.2029   4.4619   4.4619   4.4619   4.4619
     4.4619   4.4619   4.5358   4.5358   4.5358   4.7231   4.7231   4.7231
     4.7417   4.7417   4.7417   4.7417   4.7417   4.7417   4.8125   4.8125
     4.8125   4.9130   4.9130   4.9130   4.9986   4.9986   4.9986   4.9986
     4.9986   4.9986   5.0905   5.0905   5.0905   5.0905   5.0905   5.0905
     5.1853   5.1853   5.1853   5.1853   5.1853   5.1853   5.4562   5.4562
     5.4562   5.5601   5.5601   5.5601   5.6270   5.6270   5.6270   5.6270
     5.6270   5.6270   5.6296   5.7280   5.7280   5.7280   5.7280   5.7280
     5.7280   5.8218   5.8218   5.8218   5.8218   5.8218   5.8218   5.9024
     5.9024   5.9024   5.9024   5.9024   5.9024   5.9141   5.9141   5.9141
     5.9883   5.9883   5.9883   5.9883   5.9883   5.9883   6.1736   6.1736
     6.1736   6.1736   6.1736   6.1736   6.4330   6.4330   6.4330   6.4481
     6.4481   6.4481   6.5311   6.5311   6.5311   6.5311   6.5311   6.5311
     6.5830   6.5830   6.5830   6.7059   6.7059   6.7059   6.7059   6.7059
     6.7059   6.8517   6.8517   6.8517   6.8517   6.8517   6.8517   7.0027
     7.0027   7.0027   7.1987   7.1987   7.1987   7.1987   7.1987   7.1987
     7.2723   7.2723   7.2723   7.3811   7.3811   7.3811   7.3811   7.3811
     7.3811   7.5115   7.5115   7.5115   7.5115   7.5115   7.5115   7.5277
     7.5277   7.5277   7.5277   7.5277   7.5277   7.5697   7.5697   7.5697
     7.6257   7.6257   7.6257   7.6257   7.6257   7.6257   7.8362   7.8362
     7.8362   7.8362   7.8362   7.8362   7.9166   7.9166   7.9166   7.9166
     7.9166   7.9166   8.0290   8.0290   8.0290   8.0650   8.0650   8.0650
     8.0650   8.0650   8.0650   8.1936   8.1936   8.1936   8.3064   8.3064
     8.3064   8.3064   8.3064   8.3064   8.3677   8.3677   8.3677   8.4621
     8.4621   8.4621   8.4621   8.4621   8.4621   8.6204   8.6204   8.6204
     8.7882   8.7882   8.7882   8.7882   8.7882   8.7882   8.8866   8.8866
     8.8866   8.8866   8.8866   8.8866   9.0020   9.0020   9.0020   9.0858
     9.0858   9.0858   9.0970   9.0970   9.0970   9.0970   9.0970   9.0970
     9.1406   9.1406   9.1406   9.1406   9.1406   9.1406   9.2463   9.2463
     9.2463   9.2463   9.2463   9.2463   9.2763   9.2763   9.2763   9.2763
     9.2763   9.2763   9.3135   9.3135   9.3135   9.5559   9.5559   9.5559
     9.5559   9.5559   9.5559   9.6668   9.6668   9.6668   9.7245   9.8080
     9.8080   9.8080   9.8080   9.8080   9.8080   9.9051   9.9051   9.9051
     9.9746   9.9746   9.9746   9.9746   9.9746

     the Fermi energy is     8.4476 ev

!    total energy              =  -10112.56811160 Ry
     Harris-Foulkes estimate   =  -10112.56811161 Ry
     estimated scf accuracy    <       0.00000001 Ry

     total all-electron energy =   -124325.120249 Ry

     The total energy is the sum of the following terms:

     one-electron contribution =     843.42558178 Ry
     hartree contribution      =       1.56130630 Ry
     xc contribution           =    -783.25738539 Ry
     ewald contribution        =   -1408.46962917 Ry
     one-center paw contrib.   =   -8765.93074349 Ry
     smearing contrib. (-TS)   =       0.10275836 Ry

     convergence has been achieved in  20 iterations

     Forces acting on atoms (Ry/au):

     atom    1 type  1   force =     0.00000000    0.00000000    0.00000000
     atom    2 type  1   force =    -0.00000032   -0.00000032    0.00000000
     atom    3 type  1   force =    -0.00000032   -0.00000000   -0.00000032
     atom    4 type  1   force =     0.00000000   -0.00000032   -0.00000032
     atom    5 type  1   force =    -0.00000170   -0.00000000   -0.00000000
     atom    6 type  1   force =    -0.00000127    0.00000042    0.00000042
     atom    7 type  1   force =    -0.00000215    0.00000038    0.00000000
     atom    8 type  1   force =    -0.00000215   -0.00000000    0.00000038
     atom    9 type  1   force =    -0.00000000    0.00000000   -0.00000170
     atom   10 type  1   force =     0.00000042    0.00000042   -0.00000127
     atom   11 type  1   force =     0.00000038    0.00000000   -0.00000215
     atom   12 type  1   force =    -0.00000000    0.00000038   -0.00000215
     atom   13 type  1   force =     0.00000000    0.00000000    0.00000000
     atom   14 type  1   force =     0.00000096    0.00000096   -0.00000000
     atom   15 type  1   force =     0.00000038   -0.00000000    0.00000215
     atom   16 type  1   force =     0.00000000    0.00000038    0.00000215
     atom   17 type  1   force =     0.00000000    0.00000000    0.00000170
     atom   18 type  1   force =     0.00000042    0.00000042    0.00000127
     atom   19 type  1   force =    -0.00000032    0.00000000    0.00000032
     atom   20 type  1   force =    -0.00000000   -0.00000032    0.00000032
     atom   21 type  1   force =     0.00000000   -0.00000170    0.00000000
     atom   22 type  1   force =     0.00000038   -0.00000215    0.00000000
     atom   23 type  1   force =     0.00000042   -0.00000127    0.00000042
     atom   24 type  1   force =     0.00000000   -0.00000215    0.00000038
     atom   25 type  1   force =     0.00000000   -0.00000080   -0.00000080
     atom   26 type  1   force =     0.00000130   -0.00000175    0.00000033
     atom   27 type  1   force =     0.00000130    0.00000033   -0.00000175
     atom   28 type  1   force =    -0.00000000   -0.00000095   -0.00000095
     atom   29 type  1   force =     0.00000000    0.00000058   -0.00000000
     atom   30 type  1   force =     0.00000043   -0.00000128    0.00000000
     atom   31 type  1   force =     0.00000130    0.00000033    0.00000175
     atom   32 type  1   force =    -0.00000000   -0.00000095    0.00000095
     atom   33 type  1   force =    -0.00000000   -0.00000080    0.00000080
     atom   34 type  1   force =     0.00000130   -0.00000175   -0.00000033
     atom   35 type  1   force =     0.00000042   -0.00000127   -0.00000042
     atom   36 type  1   force =     0.00000000   -0.00000215   -0.00000038
     atom   37 type  1   force =     0.00000000    0.00000000    0.00000000
     atom   38 type  1   force =     0.00000038    0.00000215    0.00000000
     atom   39 type  1   force =     0.00000096    0.00000000    0.00000096
     atom   40 type  1   force =    -0.00000000    0.00000215    0.00000038
     atom   41 type  1   force =    -0.00000000   -0.00000000    0.00000058
     atom   42 type  1   force =     0.00000130    0.00000175    0.00000033
     atom   43 type  1   force =     0.00000043    0.00000000   -0.00000128
     atom   44 type  1   force =     0.00000000    0.00000095   -0.00000095
     atom   45 type  1   force =     0.00000000    0.00000000    0.00000000
     atom   46 type  1   force =     0.00000043    0.00000128    0.00000000
     atom   47 type  1   force =     0.00000043   -0.00000000    0.00000128
     atom   48 type  1   force =    -0.00000000    0.00000095    0.00000095
     atom   49 type  1   force =    -0.00000000    0.00000000   -0.00000058
     atom   50 type  1   force =     0.00000130    0.00000175   -0.00000033
     atom   51 type  1   force =     0.00000096   -0.00000000   -0.00000096
     atom   52 type  1   force =    -0.00000000    0.00000215   -0.00000038
     atom   53 type  1   force =     0.00000000    0.00000170    0.00000000
     atom   54 type  1   force =    -0.00000032    0.00000032    0.00000000
     atom   55 type  1   force =     0.00000042    0.00000127    0.00000042
     atom   56 type  1   force =    -0.00000000    0.00000032   -0.00000032
     atom   57 type  1   force =    -0.00000000    0.00000080   -0.00000080
     atom   58 type  1   force =     0.00000042   -0.00000042   -0.00000127
     atom   59 type  1   force =     0.00000130   -0.00000033   -0.00000175
     atom   60 type  1   force =     0.00000000   -0.00000038   -0.00000215
     atom   61 type  1   force =     0.00000000   -0.00000058    0.00000000
     atom   62 type  1   force =     0.00000096   -0.00000096    0.00000000
     atom   63 type  1   force =     0.00000130   -0.00000033    0.00000175
     atom   64 type  1   force =     0.00000000   -0.00000038    0.00000215
     atom   65 type  1   force =     0.00000000    0.00000080    0.00000080
     atom   66 type  1   force =     0.00000042   -0.00000042    0.00000127
     atom   67 type  1   force =     0.00000042    0.00000127   -0.00000042
     atom   68 type  1   force =    -0.00000000    0.00000032    0.00000032
     atom   69 type  1   force =    -0.00000080   -0.00000000   -0.00000080
     atom   70 type  1   force =    -0.00000175    0.00000130    0.00000033
     atom   71 type  1   force =    -0.00000095   -0.00000000   -0.00000095
     atom   72 type  1   force =     0.00000033    0.00000130   -0.00000175
     atom   73 type  1   force =     0.00000058    0.00000000    0.00000000
     atom   74 type  1   force =    -0.00000128    0.00000043   -0.00000000
     atom   75 type  1   force =    -0.00000095   -0.00000000    0.00000095
     atom   76 type  1   force =     0.00000033    0.00000130    0.00000175
     atom   77 type  1   force =    -0.00000080    0.00000000    0.00000080
     atom   78 type  1   force =    -0.00000175    0.00000130   -0.00000033
     atom   79 type  1   force =    -0.00000215    0.00000000   -0.00000038
     atom   80 type  1   force =    -0.00000127    0.00000042   -0.00000042
     atom   81 type  1   force =    -0.00000080   -0.00000080   -0.00000000
     atom   82 type  1   force =    -0.00000095   -0.00000095   -0.00000000
     atom   83 type  1   force =    -0.00000175    0.00000033    0.00000130
     atom   84 type  1   force =     0.00000033   -0.00000175    0.00000130
     atom   85 type  1   force =     0.00000001    0.00000001    0.00000001
     atom   86 type  1   force =    -0.00000181   -0.00000181   -0.00000032
     atom   87 type  1   force =    -0.00000181   -0.00000032   -0.00000181
     atom   88 type  1   force =    -0.00000032   -0.00000181   -0.00000181
     atom   89 type  1   force =    -0.00000015   -0.00000015   -0.00000000
     atom   90 type  1   force =    -0.00000088   -0.00000088   -0.00000000
     atom   91 type  1   force =    -0.00000181   -0.00000032    0.00000181
     atom   92 type  1   force =    -0.00000032   -0.00000181    0.00000181
     atom   93 type  1   force =     0.00000001    0.00000001   -0.00000001
     atom   94 type  1   force =    -0.00000181   -0.00000181    0.00000032
     atom   95 type  1   force =    -0.00000175    0.00000033   -0.00000130
     atom   96 type  1   force =     0.00000033   -0.00000175   -0.00000130
     atom   97 type  1   force =     0.00000058    0.00000000    0.00000000
     atom   98 type  1   force =    -0.00000095    0.00000095    0.00000000
     atom   99 type  1   force =    -0.00000128    0.00000000    0.00000043
     atom  100 type  1   force =     0.00000033    0.00000175    0.00000130
     atom  101 type  1   force =    -0.00000015    0.00000000   -0.00000015
     atom  102 type  1   force =    -0.00000181    0.00000181   -0.00000032
     atom  103 type  1   force =    -0.00000088   -0.00000000   -0.00000088
     atom  104 type  1   force =    -0.00000032    0.00000181   -0.00000181
     atom  105 type  1   force =    -0.00000014    0.00000000    0.00000000
     atom  106 type  1   force =    -0.00000088    0.00000088    0.00000000
     atom  107 type  1   force =    -0.00000088    0.00000000    0.00000088
     atom  108 type  1   force =    -0.00000032    0.00000181    0.00000181
     atom  109 type  1   force =    -0.00000015    0.00000000    0.00000015
     atom  110 type  1   force =    -0.00000181    0.00000181    0.00000032
     atom  111 type  1   force =    -0.00000128    0.00000000   -0.00000043
     atom  112 type  1   force =     0.00000033    0.00000175   -0.00000130
     atom  113 type  1   force =    -0.00000080    0.00000080    0.00000000
     atom  114 type  1   force =    -0.00000215   -0.00000038    0.00000000
     atom  115 type  1   force =    -0.00000175   -0.00000033    0.00000130
     atom  116 type  1   force =    -0.00000127   -0.00000042    0.00000042
     atom  117 type  1   force =     0.00000001   -0.00000001    0.00000001
     atom  118 type  1   force =    -0.00000175   -0.00000130    0.00000033
     atom  119 type  1   force =    -0.00000181    0.00000032   -0.00000181
     atom  120 type  1   force =     0.00000033   -0.00000130   -0.00000175
     atom  121 type  1   force =    -0.00000015    0.00000015    0.00000000
     atom  122 type  1   force =    -0.00000128   -0.00000043    0.00000000
     atom  123 type  1   force =    -0.00000181    0.00000032    0.00000181
     atom  124 type  1   force =     0.00000033   -0.00000130    0.00000175
     atom  125 type  1   force =     0.00000001   -0.00000001   -0.00000001
     atom  126 type  1   force =    -0.00000175   -0.00000130   -0.00000033
     atom  127 type  1   force =    -0.00000175   -0.00000033   -0.00000130
     atom  128 type  1   force =    -0.00000127   -0.00000042   -0.00000042
     atom  129 type  1   force =     0.00000000    0.00000000    0.00000000
     atom  130 type  1   force =     0.00000215    0.00000038    0.00000000
     atom  131 type  1   force =     0.00000215    0.00000000    0.00000038
     atom  132 type  1   force =     0.00000000    0.00000096    0.00000096
     atom  133 type  1   force =     0.00000000    0.00000000    0.00000058
     atom  134 type  1   force =     0.00000175    0.00000130    0.00000033
     atom  135 type  1   force =     0.00000095   -0.00000000   -0.00000095
     atom  136 type  1   force =     0.00000000    0.00000043   -0.00000128
     atom  137 type  1   force =     0.00000000    0.00000000    0.00000000
     atom  138 type  1   force =     0.00000128    0.00000043    0.00000000
     atom  139 type  1   force =     0.00000095   -0.00000000    0.00000095
     atom  140 type  1   force =    -0.00000000    0.00000043    0.00000128
     atom  141 type  1   force =     0.00000000    0.00000000   -0.00000058
     atom  142 type  1   force =     0.00000175    0.00000130   -0.00000033
     atom  143 type  1   force =     0.00000215   -0.00000000   -0.00000038
     atom  144 type  1   force =    -0.00000000    0.00000096   -0.00000096
     atom  145 type  1   force =    -0.00000000    0.00000058   -0.00000000
     atom  146 type  1   force =     0.00000095   -0.00000095    0.00000000
     atom  147 type  1   force =     0.00000175    0.00000033    0.00000130
     atom  148 type  1   force =    -0.00000000   -0.00000128    0.00000043
     atom  149 type  1   force =     0.00000000   -0.00000015   -0.00000015
     atom  150 type  1   force =     0.00000181   -0.00000181   -0.00000032
     atom  151 type  1   force =     0.00000181   -0.00000032   -0.00000181
     atom  152 type  1   force =    -0.00000000   -0.00000088   -0.00000088
     atom  153 type  1   force =    -0.00000000   -0.00000014    0.00000000
     atom  154 type  1   force =     0.00000088   -0.00000088   -0.00000000
     atom  155 type  1   force =     0.00000181   -0.00000032    0.00000181
     atom  156 type  1   force =     0.00000000   -0.00000088    0.00000088
     atom  157 type  1   force =     0.00000000   -0.00000015    0.00000015
     atom  158 type  1   force =     0.00000181   -0.00000181    0.00000032
     atom  159 type  1   force =     0.00000175    0.00000033   -0.00000130
     atom  160 type  1   force =     0.00000000   -0.00000128   -0.00000043
     atom  161 type  1   force =     0.00000000    0.00000000    0.00000000
     atom  162 type  1   force =     0.00000095    0.00000095    0.00000000
     atom  163 type  1   force =     0.00000128   -0.00000000    0.00000043
     atom  164 type  1   force =     0.00000000    0.00000128    0.00000043
     atom  165 type  1   force =     0.00000000    0.00000000   -0.00000014
     atom  166 type  1   force =     0.00000181    0.00000181   -0.00000032
     atom  167 type  1   force =     0.00000088    0.00000000   -0.00000088
     atom  168 type  1   force =     0.00000000    0.00000088   -0.00000088
     atom  169 type  1   force =     0.00000000    0.00000000    0.00000000
     atom  170 type  1   force =     0.00000088    0.00000088   -0.00000000
     atom  171 type  1   force =     0.00000088    0.00000000    0.00000088
     atom  172 type  1   force =     0.00000000    0.00000088    0.00000088
     atom  173 type  1   force =     0.00000000    0.00000000    0.00000014
     atom  174 type  1   force =     0.00000181    0.00000181    0.00000032
     atom  175 type  1   force =     0.00000128    0.00000000   -0.00000043
     atom  176 type  1   force =    -0.00000000    0.00000128   -0.00000043
     atom  177 type  1   force =     0.00000000   -0.00000058   -0.00000000
     atom  178 type  1   force =     0.00000215   -0.00000038    0.00000000
     atom  179 type  1   force =     0.00000175   -0.00000033    0.00000130
     atom  180 type  1   force =     0.00000000   -0.00000096    0.00000096
     atom  181 type  1   force =    -0.00000000    0.00000015   -0.00000015
     atom  182 type  1   force =     0.00000175   -0.00000130    0.00000033
     atom  183 type  1   force =     0.00000181    0.00000032   -0.00000181
     atom  184 type  1   force =    -0.00000000   -0.00000043   -0.00000128
     atom  185 type  1   force =    -0.00000000    0.00000014    0.00000000
     atom  186 type  1   force =     0.00000128   -0.00000043   -0.00000000
     atom  187 type  1   force =     0.00000181    0.00000032    0.00000181
     atom  188 type  1   force =    -0.00000000   -0.00000043    0.00000128
     atom  189 type  1   force =     0.00000000    0.00000015    0.00000015
     atom  190 type  1   force =     0.00000175   -0.00000130   -0.00000033
     atom  191 type  1   force =     0.00000175   -0.00000033   -0.00000130
     atom  192 type  1   force =     0.00000000   -0.00000096   -0.00000096
     atom  193 type  1   force =     0.00000170    0.00000000    0.00000000
     atom  194 type  1   force =     0.00000032   -0.00000032   -0.00000000
     atom  195 type  1   force =     0.00000032    0.00000000   -0.00000032
     atom  196 type  1   force =     0.00000127    0.00000042    0.00000042
     atom  197 type  1   force =     0.00000080   -0.00000000   -0.00000080
     atom  198 type  1   force =    -0.00000042    0.00000042   -0.00000127
     atom  199 type  1   force =    -0.00000038    0.00000000   -0.00000215
     atom  200 type  1   force =    -0.00000033    0.00000130   -0.00000175
     atom  201 type  1   force =    -0.00000058    0.00000000    0.00000000
     atom  202 type  1   force =    -0.00000096    0.00000096    0.00000000
     atom  203 type  1   force =    -0.00000038   -0.00000000    0.00000215
     atom  204 type  1   force =    -0.00000033    0.00000130    0.00000175
     atom  205 type  1   force =     0.00000080    0.00000000    0.00000080
     atom  206 type  1   force =    -0.00000042    0.00000042    0.00000127
     atom  207 type  1   force =     0.00000032    0.00000000    0.00000032
     atom  208 type  1   force =     0.00000127    0.00000042   -0.00000042
     atom  209 type  1   force =     0.00000080   -0.00000080    0.00000000
     atom  210 type  1   force =    -0.00000038   -0.00000215    0.00000000
     atom  211 type  1   force =    -0.00000042   -0.00000127    0.00000042
     atom  212 type  1   force =    -0.00000033   -0.00000175    0.00000130
     atom  213 type  1   force =    -0.00000001    0.00000001    0.00000001
     atom  214 type  1   force =    -0.00000130   -0.00000175    0.00000033
     atom  215 type  1   force =    -0.00000130    0.00000033   -0.00000175
     atom  216 type  1   force =     0.00000032   -0.00000181   -0.00000181
     atom  217 type  1   force =     0.00000015   -0.00000015    0.00000000
     atom  218 type  1   force =    -0.00000043   -0.00000128    0.00000000
     atom  219 type  1   force =    -0.00000130    0.00000033    0.00000175
     atom  220 type  1   force =     0.00000032   -0.00000181    0.00000181
     atom  221 type  1   force =    -0.00000001    0.00000001   -0.00000001
     atom  222 type  1   force =    -0.00000130   -0.00000175   -0.00000033
     atom  223 type  1   force =    -0.00000042   -0.00000127   -0.00000042
     atom  224 type  1   force =    -0.00000033   -0.00000175   -0.00000130
     atom  225 type  1   force =    -0.00000058   -0.00000000    0.00000000
     atom  226 type  1   force =    -0.00000038    0.00000215   -0.00000000
     atom  227 type  1   force =    -0.00000096   -0.00000000    0.00000096
     atom  228 type  1   force =    -0.00000033    0.00000175    0.00000130
     atom  229 type  1   force =     0.00000015   -0.00000000   -0.00000015
     atom  230 type  1   force =    -0.00000130    0.00000175    0.00000033
     atom  231 type  1   force =    -0.00000043   -0.00000000   -0.00000128
     atom  232 type  1   force =     0.00000032    0.00000181   -0.00000181
     atom  233 type  1   force =     0.00000014    0.00000000    0.00000000
     atom  234 type  1   force =    -0.00000043    0.00000128   -0.00000000
     atom  235 type  1   force =    -0.00000043    0.00000000    0.00000128
     atom  236 type  1   force =     0.00000032    0.00000181    0.00000181
     atom  237 type  1   force =     0.00000015   -0.00000000    0.00000015
     atom  238 type  1   force =    -0.00000130    0.00000175   -0.00000033
     atom  239 type  1   force =    -0.00000096   -0.00000000   -0.00000096
     atom  240 type  1   force =    -0.00000033    0.00000175   -0.00000130
     atom  241 type  1   force =     0.00000080    0.00000080    0.00000000
     atom  242 type  1   force =     0.00000032    0.00000032    0.00000000
     atom  243 type  1   force =    -0.00000042    0.00000127    0.00000042
     atom  244 type  1   force =     0.00000127   -0.00000042    0.00000042
     atom  245 type  1   force =    -0.00000001   -0.00000001    0.00000001
     atom  246 type  1   force =    -0.00000042   -0.00000042   -0.00000127
     atom  247 type  1   force =    -0.00000130   -0.00000033   -0.00000175
     atom  248 type  1   force =    -0.00000033   -0.00000130   -0.00000175
     atom  249 type  1   force =     0.00000015    0.00000015    0.00000000
     atom  250 type  1   force =    -0.00000096   -0.00000096   -0.00000000
     atom  251 type  1   force =    -0.00000130   -0.00000033    0.00000175
     atom  252 type  1   force =    -0.00000033   -0.00000130    0.00000175
     atom  253 type  1   force =    -0.00000001   -0.00000001   -0.00000001
     atom  254 type  1   force =    -0.00000042   -0.00000042    0.00000127
     atom  255 type  1   force =    -0.00000042    0.00000127   -0.00000042
     atom  256 type  1   force =     0.00000127   -0.00000042   -0.00000042

     Total force =     0.000000     Total SCF correction =     0.000000


     entering subroutine stress ...

          total   stress  (Ry/bohr**3)                   (kbar)     P=   44.54
   0.00030275   0.00000000   0.00000000         44.54      0.00      0.00
   0.00000000   0.00030275   0.00000000          0.00     44.54      0.00
   0.00000000   0.00000000   0.00030275          0.00      0.00     44.54


     BFGS Geometry Optimization

     number of scf cycles    =   1
     number of bfgs steps    =   0

     enthalpy new            =  -10066.6825365236 Ry

     new trust radius        =       0.5000000000 bohr
     new conv_thr            =       0.0000001000 Ry

     new unit-cell volume =  25786.27914 a.u.^3 (  3821.13228 Ang^3 )

CELL_PARAMETERS (alat= 30.00000000)
   0.984785484   0.000000000   0.000000000
   0.000000000   0.984785484   0.000000000
   0.000000000   0.000000000   0.984785484

ATOMIC_POSITIONS (crystal)
N        0.000000000   0.000000000   0.000000000    0   0   0
N        0.125000000   0.125000000   0.000000000    0   0   0
N        0.125000000   0.000000000   0.125000000    0   0   0
N        0.000000000   0.125000000   0.125000000    0   0   0
N        0.250000000   0.000000000   0.000000000    0   0   0
N        0.250000000   0.125000000   0.125000000    0   0   0
N        0.375000000   0.125000000   0.000000000    0   0   0
N        0.375000000   0.000000000   0.125000000    0   0   0
N        0.000000000   0.000000000   0.250000000    0   0   0
N        0.125000000   0.125000000   0.250000000    0   0   0
N        0.125000000   0.000000000   0.375000000    0   0   0
N        0.000000000   0.125000000   0.375000000    0   0   0
N        0.000000000   0.000000000   0.500000000    0   0   0
N        0.125000000   0.125000000   0.500000000    0   0   0
N        0.125000000   0.000000000   0.625000000    0   0   0
N        0.000000000   0.125000000   0.625000000    0   0   0
N        0.000000000   0.000000000   0.750000000    0   0   0
N        0.125000000   0.125000000   0.750000000    0   0   0
N        0.125000000   0.000000000   0.875000000    0   0   0
N        0.000000000   0.125000000   0.875000000    0   0   0
N        0.000000000   0.250000000   0.000000000    0   0   0
N        0.125000000   0.375000000   0.000000000    0   0   0
N        0.125000000   0.250000000   0.125000000    0   0   0
N        0.000000000   0.375000000   0.125000000    0   0   0
N        0.000000000   0.250000000   0.250000000    0   0   0
N        0.125000000   0.375000000   0.250000000    0   0   0
N        0.125000000   0.250000000   0.375000000    0   0   0
N        0.000000000   0.375000000   0.375000000    0   0   0
N        0.000000000   0.250000000   0.500000000    0   0   0
N        0.125000000   0.375000000   0.500000000    0   0   0
N        0.125000000   0.250000000   0.625000000    0   0   0
N        0.000000000   0.375000000   0.625000000    0   0   0
N        0.000000000   0.250000000   0.750000000    0   0   0
N        0.125000000   0.375000000   0.750000000    0   0   0
N        0.125000000   0.250000000   0.875000000    0   0   0
N        0.000000000   0.375000000   0.875000000    0   0   0
N        0.000000000   0.500000000   0.000000000    0   0   0
N        0.125000000   0.625000000   0.000000000    0   0   0
N        0.125000000   0.500000000   0.125000000    0   0   0
N        0.000000000   0.625000000   0.125000000    0   0   0
N        0.000000000   0.500000000   0.250000000    0   0   0
N        0.125000000   0.625000000   0.250000000    0   0   0
N        0.125000000   0.500000000   0.375000000    0   0   0
N        0.000000000   0.625000000   0.375000000    0   0   0
N        0.000000000   0.500000000   0.500000000    0   0   0
N        0.125000000   0.625000000   0.500000000    0   0   0
N        0.125000000   0.500000000   0.625000000    0   0   0
N        0.000000000   0.625000000   0.625000000    0   0   0
N        0.000000000   0.500000000   0.750000000    0   0   0
N        0.125000000   0.625000000   0.750000000    0   0   0
N        0.125000000   0.500000000   0.875000000    0   0   0
N        0.000000000   0.625000000   0.875000000    0   0   0
N        0.000000000   0.750000000   0.000000000    0   0   0
N        0.125000000   0.875000000   0.000000000    0   0   0
N        0.125000000   0.750000000   0.125000000    0   0   0
N        0.000000000   0.875000000   0.125000000    0   0   0
N        0.000000000   0.750000000   0.250000000    0   0   0
N        0.125000000   0.875000000   0.250000000    0   0   0
N        0.125000000   0.750000000   0.375000000    0   0   0
N        0.000000000   0.875000000   0.375000000    0   0   0
N        0.000000000   0.750000000   0.500000000    0   0   0
N        0.125000000   0.875000000   0.500000000    0   0   0
N        0.125000000   0.750000000   0.625000000    0   0   0
N        0.000000000   0.875000000   0.625000000    0   0   0
N        0.000000000   0.750000000   0.750000000    0   0   0
N        0.125000000   0.875000000   0.750000000    0   0   0
N        0.125000000   0.750000000   0.875000000    0   0   0
N        0.000000000   0.875000000   0.875000000    0   0   0
N        0.250000000   0.000000000   0.250000000    0   0   0
N        0.375000000   0.125000000   0.250000000    0   0   0
N        0.375000000   0.000000000   0.375000000    0   0   0
N        0.250000000   0.125000000   0.375000000    0   0   0
N        0.250000000   0.000000000   0.500000000    0   0   0
N        0.375000000   0.125000000   0.500000000    0   0   0
N        0.375000000   0.000000000   0.625000000    0   0   0
N        0.250000000   0.125000000   0.625000000    0   0   0
N        0.250000000   0.000000000   0.750000000    0   0   0
N        0.375000000   0.125000000   0.750000000    0   0   0
N        0.375000000   0.000000000   0.875000000    0   0   0
N        0.250000000   0.125000000   0.875000000    0   0   0
N        0.250000000   0.250000000   0.000000000    0   0   0
N        0.375000000   0.375000000   0.000000000    0   0   0
N        0.375000000   0.250000000   0.125000000    0   0   0
N        0.250000000   0.375000000   0.125000000    0   0   0
N        0.250000000   0.250000000   0.250000000    0   0   0
N        0.375000000   0.375000000   0.250000000    0   0   0
N        0.375000000   0.250000000   0.375000000    0   0   0
N        0.250000000   0.375000000   0.375000000    0   0   0
N        0.250000000   0.250000000   0.500000000    0   0   0
N        0.375000000   0.375000000   0.500000000    0   0   0
N        0.375000000   0.250000000   0.625000000    0   0   0
N        0.250000000   0.375000000   0.625000000    0   0   0
N        0.250000000   0.250000000   0.750000000    0   0   0
N        0.375000000   0.375000000   0.750000000    0   0   0
N        0.375000000   0.250000000   0.875000000    0   0   0
N        0.250000000   0.375000000   0.875000000    0   0   0
N        0.250000000   0.500000000   0.000000000    0   0   0
N        0.375000000   0.625000000   0.000000000    0   0   0
N        0.375000000   0.500000000   0.125000000    0   0   0
N        0.250000000   0.625000000   0.125000000    0   0   0
N        0.250000000   0.500000000   0.250000000    0   0   0
N        0.375000000   0.625000000   0.250000000    0   0   0
N        0.375000000   0.500000000   0.375000000    0   0   0
N        0.250000000   0.625000000   0.375000000    0   0   0
N        0.250000000   0.500000000   0.500000000    0   0   0
N        0.375000000   0.625000000   0.500000000    0   0   0
N        0.375000000   0.500000000   0.625000000    0   0   0
N        0.250000000   0.625000000   0.625000000    0   0   0
N        0.250000000   0.500000000   0.750000000    0   0   0
N        0.375000000   0.625000000   0.750000000    0   0   0
N        0.375000000   0.500000000   0.875000000    0   0   0
N        0.250000000   0.625000000   0.875000000    0   0   0
N        0.250000000   0.750000000   0.000000000    0   0   0
N        0.375000000   0.875000000   0.000000000    0   0   0
N        0.375000000   0.750000000   0.125000000    0   0   0
N        0.250000000   0.875000000   0.125000000    0   0   0
N        0.250000000   0.750000000   0.250000000    0   0   0
N        0.375000000   0.875000000   0.250000000    0   0   0
N        0.375000000   0.750000000   0.375000000    0   0   0
N        0.250000000   0.875000000   0.375000000    0   0   0
N        0.250000000   0.750000000   0.500000000    0   0   0
N        0.375000000   0.875000000   0.500000000    0   0   0
N        0.375000000   0.750000000   0.625000000    0   0   0
N        0.250000000   0.875000000   0.625000000    0   0   0
N        0.250000000   0.750000000   0.750000000    0   0   0
N        0.375000000   0.875000000   0.750000000    0   0   0
N        0.375000000   0.750000000   0.875000000    0   0   0
N        0.250000000   0.875000000   0.875000000    0   0   0
N        0.500000000   0.000000000   0.000000000    0   0   0
N        0.625000000   0.125000000   0.000000000    0   0   0
N        0.625000000   0.000000000   0.125000000    0   0   0
N        0.500000000   0.125000000   0.125000000    0   0   0
N        0.500000000   0.000000000   0.250000000    0   0   0
N        0.625000000   0.125000000   0.250000000    0   0   0
N        0.625000000   0.000000000   0.375000000    0   0   0
N        0.500000000   0.125000000   0.375000000    0   0   0
N        0.500000000   0.000000000   0.500000000    0   0   0
N        0.625000000   0.125000000   0.500000000    0   0   0
N        0.625000000   0.000000000   0.625000000    0   0   0
N        0.500000000   0.125000000   0.625000000    0   0   0
N        0.500000000   0.000000000   0.750000000    0   0   0
N        0.625000000   0.125000000   0.750000000    0   0   0
N        0.625000000   0.000000000   0.875000000    0   0   0
N        0.500000000   0.125000000   0.875000000    0   0   0
N        0.500000000   0.250000000   0.000000000    0   0   0
N        0.625000000   0.375000000   0.000000000    0   0   0
N        0.625000000   0.250000000   0.125000000    0   0   0
N        0.500000000   0.375000000   0.125000000    0   0   0
N        0.500000000   0.250000000   0.250000000    0   0   0
N        0.625000000   0.375000000   0.250000000    0   0   0
N        0.625000000   0.250000000   0.375000000    0   0   0
N        0.500000000   0.375000000   0.375000000    0   0   0
N        0.500000000   0.250000000   0.500000000    0   0   0
N        0.625000000   0.375000000   0.500000000    0   0   0
N        0.625000000   0.250000000   0.625000000    0   0   0
N        0.500000000   0.375000000   0.625000000    0   0   0
N        0.500000000   0.250000000   0.750000000    0   0   0
N        0.625000000   0.375000000   0.750000000    0   0   0
N        0.625000000   0.250000000   0.875000000    0   0   0
N        0.500000000   0.375000000   0.875000000    0   0   0
N        0.500000000   0.500000000   0.000000000    0   0   0
N        0.625000000   0.625000000   0.000000000    0   0   0
N        0.625000000   0.500000000   0.125000000    0   0   0
N        0.500000000   0.625000000   0.125000000    0   0   0
N        0.500000000   0.500000000   0.250000000    0   0   0
N        0.625000000   0.625000000   0.250000000    0   0   0
N        0.625000000   0.500000000   0.375000000    0   0   0
N        0.500000000   0.625000000   0.375000000    0   0   0
N        0.500000000   0.500000000   0.500000000    0   0   0
N        0.625000000   0.625000000   0.500000000    0   0   0
N        0.625000000   0.500000000   0.625000000    0   0   0
N        0.500000000   0.625000000   0.625000000    0   0   0
N        0.500000000   0.500000000   0.750000000    0   0   0
N        0.625000000   0.625000000   0.750000000    0   0   0
N        0.625000000   0.500000000   0.875000000    0   0   0
N        0.500000000   0.625000000   0.875000000    0   0   0
N        0.500000000   0.750000000   0.000000000    0   0   0
N        0.625000000   0.875000000   0.000000000    0   0   0
N        0.625000000   0.750000000   0.125000000    0   0   0
N        0.500000000   0.875000000   0.125000000    0   0   0
N        0.500000000   0.750000000   0.250000000    0   0   0
N        0.625000000   0.875000000   0.250000000    0   0   0
N        0.625000000   0.750000000   0.375000000    0   0   0
N        0.500000000   0.875000000   0.375000000    0   0   0
N        0.500000000   0.750000000   0.500000000    0   0   0
N        0.625000000   0.875000000   0.500000000    0   0   0
N        0.625000000   0.750000000   0.625000000    0   0   0
N        0.500000000   0.875000000   0.625000000    0   0   0
N        0.500000000   0.750000000   0.750000000    0   0   0
N        0.625000000   0.875000000   0.750000000    0   0   0
N        0.625000000   0.750000000   0.875000000    0   0   0
N        0.500000000   0.875000000   0.875000000    0   0   0
N        0.750000000   0.000000000   0.000000000    0   0   0
N        0.875000000   0.125000000   0.000000000    0   0   0
N        0.875000000   0.000000000   0.125000000    0   0   0
N        0.750000000   0.125000000   0.125000000    0   0   0
N        0.750000000   0.000000000   0.250000000    0   0   0
N        0.875000000   0.125000000   0.250000000    0   0   0
N        0.875000000   0.000000000   0.375000000    0   0   0
N        0.750000000   0.125000000   0.375000000    0   0   0
N        0.750000000   0.000000000   0.500000000    0   0   0
N        0.875000000   0.125000000   0.500000000    0   0   0
N        0.875000000   0.000000000   0.625000000    0   0   0
N        0.750000000   0.125000000   0.625000000    0   0   0
N        0.750000000   0.000000000   0.750000000    0   0   0
N        0.875000000   0.125000000   0.750000000    0   0   0
N        0.875000000   0.000000000   0.875000000    0   0   0
N        0.750000000   0.125000000   0.875000000    0   0   0
N        0.750000000   0.250000000   0.000000000    0   0   0
N        0.875000000   0.375000000   0.000000000    0   0   0
N        0.875000000   0.250000000   0.125000000    0   0   0
N        0.750000000   0.375000000   0.125000000    0   0   0
N        0.750000000   0.250000000   0.250000000    0   0   0
N        0.875000000   0.375000000   0.250000000    0   0   0
N        0.875000000   0.250000000   0.375000000    0   0   0
N        0.750000000   0.375000000   0.375000000    0   0   0
N        0.750000000   0.250000000   0.500000000    0   0   0
N        0.875000000   0.375000000   0.500000000    0   0   0
N        0.875000000   0.250000000   0.625000000    0   0   0
N        0.750000000   0.375000000   0.625000000    0   0   0
N        0.750000000   0.250000000   0.750000000    0   0   0
N        0.875000000   0.375000000   0.750000000    0   0   0
N        0.875000000   0.250000000   0.875000000    0   0   0
N        0.750000000   0.375000000   0.875000000    0   0   0
N        0.750000000   0.500000000   0.000000000    0   0   0
N        0.875000000   0.625000000   0.000000000    0   0   0
N        0.875000000   0.500000000   0.125000000    0   0   0
N        0.750000000   0.625000000   0.125000000    0   0   0
N        0.750000000   0.500000000   0.250000000    0   0   0
N        0.875000000   0.625000000   0.250000000    0   0   0
N        0.875000000   0.500000000   0.375000000    0   0   0
N        0.750000000   0.625000000   0.375000000    0   0   0
N        0.750000000   0.500000000   0.500000000    0   0   0
N        0.875000000   0.625000000   0.500000000    0   0   0
N        0.875000000   0.500000000   0.625000000    0   0   0
N        0.750000000   0.625000000   0.625000000    0   0   0
N        0.750000000   0.500000000   0.750000000    0   0   0
N        0.875000000   0.625000000   0.750000000    0   0   0
N        0.875000000   0.500000000   0.875000000    0   0   0
N        0.750000000   0.625000000   0.875000000    0   0   0
N        0.750000000   0.750000000   0.000000000    0   0   0
N        0.875000000   0.875000000   0.000000000    0   0   0
N        0.875000000   0.750000000   0.125000000    0   0   0
N        0.750000000   0.875000000   0.125000000    0   0   0
N        0.750000000   0.750000000   0.250000000    0   0   0
N        0.875000000   0.875000000   0.250000000    0   0   0
N        0.875000000   0.750000000   0.375000000    0   0   0
N        0.750000000   0.875000000   0.375000000    0   0   0
N        0.750000000   0.750000000   0.500000000    0   0   0
N        0.875000000   0.875000000   0.500000000    0   0   0
N        0.875000000   0.750000000   0.625000000    0   0   0
N        0.750000000   0.875000000   0.625000000    0   0   0
N        0.750000000   0.750000000   0.750000000    0   0   0
N        0.875000000   0.875000000   0.750000000    0   0   0
N        0.875000000   0.750000000   0.875000000    0   0   0
N        0.750000000   0.875000000   0.875000000    0   0   0



     Writing output data file 7d97bdd715e7.save
     NEW-OLD atomic charge density approx. for the potential
     NEW k-points:
        k(    1) = (   0.2538624   0.2538624   0.2538624), wk =   2.0000000

     Check: negative/imaginary core charge=   -0.000005    0.000000
     extrapolated charge  731.87901, renormalised to  768.00000

     total cpu time spent up to now is     1001.2 secs

     Self-consistent Calculation

     iteration #  1     ecut=    35.00 Ry     beta=0.70
     Davidson diagonalization with overlap
     ethr =  1.00E-06,  avg # of iterations =  9.0

     total cpu time spent up to now is     1083.2 secs

     total energy              =  -10112.00215862 Ry
     Harris-Foulkes estimate   =  -10081.91322825 Ry
     estimated scf accuracy    <       0.00885701 Ry

     iteration #  2     ecut=    35.00 Ry     beta=0.70
     Davidson diagonalization with overlap
     ethr =  1.15E-06,  avg # of iterations =  1.0

     total cpu time spent up to now is     1109.7 secs

     total energy              =  -10112.00127616 Ry
     Harris-Foulkes estimate   =  -10112.00264068 Ry
     estimated scf accuracy    <       0.00150293 Ry

     iteration #  3     ecut=    35.00 Ry     beta=0.70
     Davidson diagonalization with overlap
     ethr =  1.96E-07,  avg # of iterations =  5.0

     total cpu time spent up to now is     1171.6 secs

     total energy              =  -10111.98918606 Ry
     Harris-Foulkes estimate   =  -10112.01508642 Ry
     estimated scf accuracy    <       0.37613062 Ry

     iteration #  4     ecut=    35.00 Ry     beta=0.70
     Davidson diagonalization with overlap
     ethr =  1.96E-07,  avg # of iterations =  6.0

     total cpu time spent up to now is     1230.0 secs

     total energy              =  -10112.00212655 Ry
     Harris-Foulkes estimate   =  -10112.00221845 Ry
     estimated scf accuracy    <       0.00045861 Ry

     iteration #  5     ecut=    35.00 Ry     beta=0.70
     Davidson diagonalization with overlap
     ethr =  5.97E-08,  avg # of iterations =  3.0

     total cpu time spent up to now is     1265.0 secs

     total energy              =  -10112.00212731 Ry
     Harris-Foulkes estimate   =  -10112.00225288 Ry
     estimated scf accuracy    <       0.00084265 Ry

     iteration #  6     ecut=    35.00 Ry     beta=0.70
     Davidson diagonalization with overlap
     ethr =  5.97E-08,  avg # of iterations =  3.0

     total cpu time spent up to now is     1299.2 secs

     total energy              =  -10112.00216562 Ry
     Harris-Foulkes estimate   =  -10112.00222094 Ry
     estimated scf accuracy    <       0.00024995 Ry

     iteration #  7     ecut=    35.00 Ry     beta=0.70
     Davidson diagonalization with overlap
     ethr =  3.25E-08,  avg # of iterations =  2.0

     total cpu time spent up to now is     1329.0 secs

     total energy              =  -10112.00218987 Ry
     Harris-Foulkes estimate   =  -10112.00219134 Ry
     estimated scf accuracy    <       0.00001951 Ry

     iteration #  8     ecut=    35.00 Ry     beta=0.70
     Davidson diagonalization with overlap
     ethr =  2.54E-09,  avg # of iterations =  5.0

     total cpu time spent up to now is     1374.9 secs

     total energy              =  -10112.00219299 Ry
     Harris-Foulkes estimate   =  -10112.00219402 Ry
     estimated scf accuracy    <       0.00001263 Ry

     iteration #  9     ecut=    35.00 Ry     beta=0.70
     Davidson diagonalization with overlap
     ethr =  1.64E-09,  avg # of iterations =  1.0

     total cpu time spent up to now is     1401.7 secs

     total energy              =  -10112.00219326 Ry
     Harris-Foulkes estimate   =  -10112.00219347 Ry
     estimated scf accuracy    <       0.00000238 Ry

     iteration # 10     ecut=    35.00 Ry     beta=0.70
     Davidson diagonalization with overlap
     ethr =  3.09E-10,  avg # of iterations =  3.0

     total cpu time spent up to now is     1433.2 secs

     total energy              =  -10112.00219333 Ry
     Harris-Foulkes estimate   =  -10112.00219338 Ry
     estimated scf accuracy    <       0.00000058 Ry

     iteration # 11     ecut=    35.00 Ry     beta=0.70
     Davidson diagonalization with overlap
[...]
     atom   33 type  1   force =     0.00000000   -0.00003640    0.00003640
     atom   34 type  1   force =    -0.00004211   -0.00002838    0.00004444
     atom   35 type  1   force =    -0.00002870   -0.00003621    0.00002870
     atom   36 type  1   force =     0.00000000   -0.00002436    0.00002706
     atom   37 type  1   force =     0.00000000    0.00000000    0.00000000
     atom   38 type  1   force =    -0.00002706    0.00002436   -0.00000000
     atom   39 type  1   force =    -0.00003281    0.00000000   -0.00003281
     atom   40 type  1   force =     0.00000000    0.00002436   -0.00002706
     atom   41 type  1   force =     0.00000000    0.00000000   -0.00003930
     atom   42 type  1   force =    -0.00004211    0.00002838   -0.00004444
     atom   43 type  1   force =    -0.00005580    0.00000000   -0.00003222
     atom   44 type  1   force =     0.00000000    0.00002718   -0.00002718
     atom   45 type  1   force =     0.00000000    0.00000000    0.00000000
     atom   46 type  1   force =    -0.00005580    0.00003222    0.00000000
     atom   47 type  1   force =    -0.00005580    0.00000000    0.00003222
     atom   48 type  1   force =    -0.00000000    0.00002718    0.00002718
     atom   49 type  1   force =     0.00000000    0.00000000    0.00003930
     atom   50 type  1   force =    -0.00004211    0.00002838    0.00004444
     atom   51 type  1   force =    -0.00003281    0.00000000    0.00003281
     atom   52 type  1   force =     0.00000000    0.00002436    0.00002706
     atom   53 type  1   force =     0.00000000    0.00003380   -0.00000000
     atom   54 type  1   force =    -0.00002453    0.00002453   -0.00000000
     atom   55 type  1   force =    -0.00002870    0.00003621   -0.00002870
     atom   56 type  1   force =    -0.00000000    0.00002453   -0.00002453
     atom   57 type  1   force =     0.00000000    0.00003640   -0.00003640
     atom   58 type  1   force =    -0.00002870    0.00002870   -0.00003621
     atom   59 type  1   force =    -0.00004211    0.00004444   -0.00002838
     atom   60 type  1   force =    -0.00000000    0.00002706   -0.00002436
     atom   61 type  1   force =    -0.00000000    0.00003930   -0.00000000
     atom   62 type  1   force =    -0.00003281    0.00003281   -0.00000000
     atom   63 type  1   force =    -0.00004211    0.00004444    0.00002838
     atom   64 type  1   force =     0.00000000    0.00002706    0.00002436
     atom   65 type  1   force =    -0.00000000    0.00003640    0.00003640
     atom   66 type  1   force =    -0.00002870    0.00002870    0.00003621
     atom   67 type  1   force =    -0.00002870    0.00003621    0.00002870
     atom   68 type  1   force =     0.00000000    0.00002453    0.00002453
     atom   69 type  1   force =    -0.00003640    0.00000000   -0.00003640
     atom   70 type  1   force =    -0.00002838   -0.00004211   -0.00004444
     atom   71 type  1   force =    -0.00002718   -0.00000000   -0.00002718
     atom   72 type  1   force =    -0.00004444   -0.00004211   -0.00002838
     atom   73 type  1   force =    -0.00003930    0.00000000   -0.00000000
     atom   74 type  1   force =    -0.00003222   -0.00005580    0.00000000
     atom   75 type  1   force =    -0.00002718   -0.00000000    0.00002718
     atom   76 type  1   force =    -0.00004444   -0.00004211    0.00002838
     atom   77 type  1   force =    -0.00003640    0.00000000    0.00003640
     atom   78 type  1   force =    -0.00002838   -0.00004211    0.00004444
     atom   79 type  1   force =    -0.00002436   -0.00000000    0.00002706
     atom   80 type  1   force =    -0.00003621   -0.00002870    0.00002870
     atom   81 type  1   force =    -0.00003640   -0.00003640    0.00000000
     atom   82 type  1   force =    -0.00002718   -0.00002718    0.00000000
     atom   83 type  1   force =    -0.00002838   -0.00004444   -0.00004211
     atom   84 type  1   force =    -0.00004444   -0.00002838   -0.00004211
     atom   85 type  1   force =    -0.00004959   -0.00004959   -0.00004959
     atom   86 type  1   force =    -0.00004039   -0.00004039   -0.00007149
     atom   87 type  1   force =    -0.00004039   -0.00007149   -0.00004039
     atom   88 type  1   force =    -0.00007149   -0.00004039   -0.00004039
     atom   89 type  1   force =    -0.00006181   -0.00006181   -0.00000000
     atom   90 type  1   force =    -0.00005292   -0.00005292   -0.00000000
     atom   91 type  1   force =    -0.00004039   -0.00007149    0.00004039
     atom   92 type  1   force =    -0.00007149   -0.00004039    0.00004039
     atom   93 type  1   force =    -0.00004959   -0.00004959    0.00004959
     atom   94 type  1   force =    -0.00004039   -0.00004039    0.00007149
     atom   95 type  1   force =    -0.00002838   -0.00004444    0.00004211
     atom   96 type  1   force =    -0.00004444   -0.00002838    0.00004211
     atom   97 type  1   force =    -0.00003930   -0.00000000   -0.00000000
     atom   98 type  1   force =    -0.00002718    0.00002718    0.00000000
     atom   99 type  1   force =    -0.00003222    0.00000000   -0.00005580
     atom  100 type  1   force =    -0.00004444    0.00002838   -0.00004211
     atom  101 type  1   force =    -0.00006181    0.00000000   -0.00006181
     atom  102 type  1   force =    -0.00004039    0.00004039   -0.00007149
     atom  103 type  1   force =    -0.00005292    0.00000000   -0.00005292
     atom  104 type  1   force =    -0.00007149    0.00004039   -0.00004039
     atom  105 type  1   force =    -0.00008278    0.00000000    0.00000000
     atom  106 type  1   force =    -0.00005292    0.00005292   -0.00000000
     atom  107 type  1   force =    -0.00005292   -0.00000000    0.00005292
     atom  108 type  1   force =    -0.00007149    0.00004039    0.00004039
     atom  109 type  1   force =    -0.00006181    0.00000000    0.00006181
     atom  110 type  1   force =    -0.00004039    0.00004039    0.00007149
     atom  111 type  1   force =    -0.00003222    0.00000000    0.00005580
     atom  112 type  1   force =    -0.00004444    0.00002838    0.00004211
     atom  113 type  1   force =    -0.00003640    0.00003640    0.00000000
     atom  114 type  1   force =    -0.00002436    0.00002706   -0.00000000
     atom  115 type  1   force =    -0.00002838    0.00004444   -0.00004211
     atom  116 type  1   force =    -0.00003621    0.00002870   -0.00002870
     atom  117 type  1   force =    -0.00004959    0.00004959   -0.00004959
     atom  118 type  1   force =    -0.00002838    0.00004211   -0.00004444
     atom  119 type  1   force =    -0.00004039    0.00007149   -0.00004039
     atom  120 type  1   force =    -0.00004444    0.00004211   -0.00002838
     atom  121 type  1   force =    -0.00006181    0.00006181    0.00000000
     atom  122 type  1   force =    -0.00003222    0.00005580    0.00000000
     atom  123 type  1   force =    -0.00004039    0.00007149    0.00004039
     atom  124 type  1   force =    -0.00004444    0.00004211    0.00002838
     atom  125 type  1   force =    -0.00004959    0.00004959    0.00004959
     atom  126 type  1   force =    -0.00002838    0.00004211    0.00004444
     atom  127 type  1   force =    -0.00002838    0.00004444    0.00004211
     atom  128 type  1   force =    -0.00003621    0.00002870    0.00002870
     atom  129 type  1   force =     0.00000000    0.00000000    0.00000000
     atom  130 type  1   force =     0.00002436   -0.00002706    0.00000000
     atom  131 type  1   force =     0.00002436    0.00000000   -0.00002706
     atom  132 type  1   force =    -0.00000000   -0.00003281   -0.00003281
     atom  133 type  1   force =     0.00000000   -0.00000000   -0.00003930
     atom  134 type  1   force =     0.00002838   -0.00004211   -0.00004444
     atom  135 type  1   force =     0.00002718    0.00000000   -0.00002718
     atom  136 type  1   force =     0.00000000   -0.00005580   -0.00003222
     atom  137 type  1   force =     0.00000000    0.00000000    0.00000000
     atom  138 type  1   force =     0.00003222   -0.00005580    0.00000000
     atom  139 type  1   force =     0.00002718    0.00000000    0.00002718
     atom  140 type  1   force =     0.00000000   -0.00005580    0.00003222
     atom  141 type  1   force =     0.00000000   -0.00000000    0.00003930
     atom  142 type  1   force =     0.00002838   -0.00004211    0.00004444
     atom  143 type  1   force =     0.00002436    0.00000000    0.00002706
     atom  144 type  1   force =    -0.00000000   -0.00003281    0.00003281
     atom  145 type  1   force =    -0.00000000   -0.00003930    0.00000000
     atom  146 type  1   force =     0.00002718   -0.00002718   -0.00000000
     atom  147 type  1   force =     0.00002838   -0.00004444   -0.00004211
     atom  148 type  1   force =     0.00000000   -0.00003222   -0.00005580
     atom  149 type  1   force =    -0.00000000   -0.00006181   -0.00006181
     atom  150 type  1   force =     0.00004039   -0.00004039   -0.00007149
     atom  151 type  1   force =     0.00004039   -0.00007149   -0.00004039
     atom  152 type  1   force =     0.00000000   -0.00005292   -0.00005292
     atom  153 type  1   force =     0.00000000   -0.00008278   -0.00000000
     atom  154 type  1   force =     0.00005292   -0.00005292    0.00000000
     atom  155 type  1   force =     0.00004039   -0.00007149    0.00004039
     atom  156 type  1   force =     0.00000000   -0.00005292    0.00005292
     atom  157 type  1   force =     0.00000000   -0.00006181    0.00006181
     atom  158 type  1   force =     0.00004039   -0.00004039    0.00007149
     atom  159 type  1   force =     0.00002838   -0.00004444    0.00004211
     atom  160 type  1   force =    -0.00000000   -0.00003222    0.00005580
     atom  161 type  1   force =     0.00000000    0.00000000    0.00000000
     atom  162 type  1   force =     0.00002718    0.00002718    0.00000000
     atom  163 type  1   force =     0.00003222    0.00000000   -0.00005580
     atom  164 type  1   force =     0.00000000    0.00003222   -0.00005580
     atom  165 type  1   force =     0.00000000    0.00000000   -0.00008278
     atom  166 type  1   force =     0.00004039    0.00004039   -0.00007149
     atom  167 type  1   force =     0.00005292    0.00000000   -0.00005292
     atom  168 type  1   force =    -0.00000000    0.00005292   -0.00005292
     atom  169 type  1   force =     0.00000000    0.00000000    0.00000000
     atom  170 type  1   force =     0.00005292    0.00005292    0.00000000
     atom  171 type  1   force =     0.00005292    0.00000000    0.00005292
     atom  172 type  1   force =    -0.00000000    0.00005292    0.00005292
     atom  173 type  1   force =     0.00000000    0.00000000    0.00008278
     atom  174 type  1   force =     0.00004039    0.00004039    0.00007149
     atom  175 type  1   force =     0.00003222    0.00000000    0.00005580
     atom  176 type  1   force =    -0.00000000    0.00003222    0.00005580
     atom  177 type  1   force =    -0.00000000    0.00003930    0.00000000
     atom  178 type  1   force =     0.00002436    0.00002706    0.00000000
     atom  179 type  1   force =     0.00002838    0.00004444   -0.00004211
     atom  180 type  1   force =     0.00000000    0.00003281   -0.00003281
     atom  181 type  1   force =    -0.00000000    0.00006181   -0.00006181
     atom  182 type  1   force =     0.00002838    0.00004211   -0.00004444
     atom  183 type  1   force =     0.00004039    0.00007149   -0.00004039
     atom  184 type  1   force =     0.00000000    0.00005580   -0.00003222
     atom  185 type  1   force =    -0.00000000    0.00008278   -0.00000000
     atom  186 type  1   force =     0.00003222    0.00005580   -0.00000000
     atom  187 type  1   force =     0.00004039    0.00007149    0.00004039
     atom  188 type  1   force =     0.00000000    0.00005580    0.00003222
     atom  189 type  1   force =     0.00000000    0.00006181    0.00006181
     atom  190 type  1   force =     0.00002838    0.00004211    0.00004444
     atom  191 type  1   force =     0.00002838    0.00004444    0.00004211
     atom  192 type  1   force =     0.00000000    0.00003281    0.00003281
     atom  193 type  1   force =     0.00003380   -0.00000000    0.00000000
     atom  194 type  1   force =     0.00002453   -0.00002453    0.00000000
     atom  195 type  1   force =     0.00002453    0.00000000   -0.00002453
     atom  196 type  1   force =     0.00003621   -0.00002870   -0.00002870
     atom  197 type  1   force =     0.00003640    0.00000000   -0.00003640
     atom  198 type  1   force =     0.00002870   -0.00002870   -0.00003621
     atom  199 type  1   force =     0.00002706   -0.00000000   -0.00002436
     atom  200 type  1   force =     0.00004444   -0.00004211   -0.00002838
     atom  201 type  1   force =     0.00003930    0.00000000    0.00000000
     atom  202 type  1   force =     0.00003281   -0.00003281    0.00000000
     atom  203 type  1   force =     0.00002706    0.00000000    0.00002436
     atom  204 type  1   force =     0.00004444   -0.00004211    0.00002838
     atom  205 type  1   force =     0.00003640   -0.00000000    0.00003640
     atom  206 type  1   force =     0.00002870   -0.00002870    0.00003621
     atom  207 type  1   force =     0.00002453    0.00000000    0.00002453
     atom  208 type  1   force =     0.00003621   -0.00002870    0.00002870
     atom  209 type  1   force =     0.00003640   -0.00003640    0.00000000
     atom  210 type  1   force =     0.00002706   -0.00002436    0.00000000
     atom  211 type  1   force =     0.00002870   -0.00003621   -0.00002870
     atom  212 type  1   force =     0.00004444   -0.00002838   -0.00004211
     atom  213 type  1   force =     0.00004959   -0.00004959   -0.00004959
     atom  214 type  1   force =     0.00004211   -0.00002838   -0.00004444
     atom  215 type  1   force =     0.00004211   -0.00004444   -0.00002838
     atom  216 type  1   force =     0.00007149   -0.00004039   -0.00004039
     atom  217 type  1   force =     0.00006181   -0.00006181   -0.00000000
     atom  218 type  1   force =     0.00005580   -0.00003222    0.00000000
     atom  219 type  1   force =     0.00004211   -0.00004444    0.00002838
     atom  220 type  1   force =     0.00007149   -0.00004039    0.00004039
     atom  221 type  1   force =     0.00004959   -0.00004959    0.00004959
     atom  222 type  1   force =     0.00004211   -0.00002838    0.00004444
     atom  223 type  1   force =     0.00002870   -0.00003621    0.00002870
     atom  224 type  1   force =     0.00004444   -0.00002838    0.00004211
     atom  225 type  1   force =     0.00003930   -0.00000000   -0.00000000
     atom  226 type  1   force =     0.00002706    0.00002436   -0.00000000
     atom  227 type  1   force =     0.00003281   -0.00000000   -0.00003281
     atom  228 type  1   force =     0.00004444    0.00002838   -0.00004211
     atom  229 type  1   force =     0.00006181   -0.00000000   -0.00006181
     atom  230 type  1   force =     0.00004211    0.00002838   -0.00004444
     atom  231 type  1   force =     0.00005580    0.00000000   -0.00003222
     atom  232 type  1   force =     0.00007149    0.00004039   -0.00004039
     atom  233 type  1   force =     0.00008278    0.00000000    0.00000000
     atom  234 type  1   force =     0.00005580    0.00003222    0.00000000
     atom  235 type  1   force =     0.00005580   -0.00000000    0.00003222
     atom  236 type  1   force =     0.00007149    0.00004039    0.00004039
     atom  237 type  1   force =     0.00006181   -0.00000000    0.00006181
     atom  238 type  1   force =     0.00004211    0.00002838    0.00004444
     atom  239 type  1   force =     0.00003281   -0.00000000    0.00003281
     atom  240 type  1   force =     0.00004444    0.00002838    0.00004211
     atom  241 type  1   force =     0.00003640    0.00003640   -0.00000000
     atom  242 type  1   force =     0.00002453    0.00002453   -0.00000000
     atom  243 type  1   force =     0.00002870    0.00003621   -0.00002870
     atom  244 type  1   force =     0.00003621    0.00002870   -0.00002870
     atom  245 type  1   force =     0.00004959    0.00004959   -0.00004959
     atom  246 type  1   force =     0.00002870    0.00002870   -0.00003621
     atom  247 type  1   force =     0.00004211    0.00004444   -0.00002838
     atom  248 type  1   force =     0.00004444    0.00004211   -0.00002838
     atom  249 type  1   force =     0.00006181    0.00006181   -0.00000000
     atom  250 type  1   force =     0.00003281    0.00003281    0.00000000
     atom  251 type  1   force =     0.00004211    0.00004444    0.00002838
     atom  252 type  1   force =     0.00004444    0.00004211    0.00002838
     atom  253 type  1   force =     0.00004959    0.00004959    0.00004959
     atom  254 type  1   force =     0.00002870    0.00002870    0.00003621
     atom  255 type  1   force =     0.00002870    0.00003621    0.00002870
     atom  256 type  1   force =     0.00003621    0.00002870    0.00002870

     Total force =     0.000000     Total SCF correction =     0.000000


     entering subroutine stress ...

          total   stress  (Ry/bohr**3)                   (kbar)     P=  249.45
   0.00169574   0.00000000   0.00000000        249.45      0.00      0.00
   0.00000000   0.00169574   0.00000000          0.00    249.45      0.00
   0.00000000   0.00000000   0.00169574          0.00      0.00    249.45


     Writing output data file 7d97bdd715e7.save
 
     init_run     :     42.68s CPU     45.30s WALL (       2 calls)
     electrons    :   4162.10s CPU   4348.82s WALL (       8 calls)
     update_pot   :     20.24s CPU     21.25s WALL (       6 calls)
     forces       :    181.65s CPU    183.28s WALL (       8 calls)
     stress       :    571.54s CPU    573.82s WALL (       8 calls)

     Called by init_run:
     wfcinit      :     31.14s CPU     33.05s WALL (       2 calls)
     potinit      :      1.73s CPU      2.00s WALL (       2 calls)

     Called by electrons:
     c_bands      :   3173.68s CPU   3311.22s WALL (     105 calls)
     sum_band     :    553.85s CPU    581.43s WALL (     105 calls)
     v_of_rho     :     13.29s CPU     21.03s WALL (     109 calls)
     newd         :    362.83s CPU    366.41s WALL (     109 calls)
     mix_rho      :     20.88s CPU     22.58s WALL (     105 calls)

     Called by c_bands:
     init_us_2    :      8.89s CPU      9.02s WALL (     218 calls)
     cegterg      :   3141.11s CPU   3278.10s WALL (     105 calls)

     Called by *egterg:
     h_psi        :   1140.96s CPU   1264.16s WALL (     558 calls)
     s_psi        :    338.34s CPU    340.13s WALL (     558 calls)
     g_psi        :      4.86s CPU      4.87s WALL (     451 calls)
     cdiaghg      :   1020.45s CPU   1022.05s WALL (     546 calls)

     Called by h_psi:
     add_vuspsi   :    339.78s CPU    341.53s WALL (     558 calls)

     General routines
     calbec       :    530.12s CPU    531.72s WALL (     685 calls)
     fft          :     21.17s CPU     36.14s WALL (    1934 calls)
     ffts         :      1.61s CPU      2.90s WALL (     214 calls)
     fftw         :    423.58s CPU    566.77s WALL (  320955 calls)
     interpolate  :      4.02s CPU      7.09s WALL (     214 calls)
     davcio       :      0.00s CPU      0.09s WALL (       2 calls)
 
     Parallel routines
     fft_scatter  :    225.88s CPU    328.73s WALL (  323103 calls)
 
     PAW routines
     PAW_pot      :     46.40s CPU     48.54s WALL (     115 calls)
     PAW_ddot     :     18.15s CPU     18.52s WALL (    2357 calls)
     PAW_symme    :      0.21s CPU      0.22s WALL (     220 calls)
 
     PWSCF        :     1h23m CPU        1h26m WALL

 
   This run was terminated on:   2:11:50   5Oct2013            

=------------------------------------------------------------------------------=
   JOB DONE.
=------------------------------------------------------------------------------=
