
 ========================   JOB MAP   ========================

 Data for node: bb2a3c26	Num procs: 8
 	Process OMPI jobid: [48530,1] Process rank: 0
 	Process OMPI jobid: [48530,1] Process rank: 4
 	Process OMPI jobid: [48530,1] Process rank: 8
 	Process OMPI jobid: [48530,1] Process rank: 12
 	Process OMPI jobid: [48530,1] Process rank: 16
 	Process OMPI jobid: [48530,1] Process rank: 20
 	Process OMPI jobid: [48530,1] Process rank: 24
 	Process OMPI jobid: [48530,1] Process rank: 28

 Data for node: bb2a3c23	Num procs: 8
 	Process OMPI jobid: [48530,1] Process rank: 1
 	Process OMPI jobid: [48530,1] Process rank: 5
 	Process OMPI jobid: [48530,1] Process rank: 9
 	Process OMPI jobid: [48530,1] Process rank: 13
 	Process OMPI jobid: [48530,1] Process rank: 17
 	Process OMPI jobid: [48530,1] Process rank: 21
 	Process OMPI jobid: [48530,1] Process rank: 25
 	Process OMPI jobid: [48530,1] Process rank: 29

 Data for node: bb2a3c16	Num procs: 8
 	Process OMPI jobid: [48530,1] Process rank: 2
 	Process OMPI jobid: [48530,1] Process rank: 6
 	Process OMPI jobid: [48530,1] Process rank: 10
 	Process OMPI jobid: [48530,1] Process rank: 14
 	Process OMPI jobid: [48530,1] Process rank: 18
 	Process OMPI jobid: [48530,1] Process rank: 22
 	Process OMPI jobid: [48530,1] Process rank: 26
 	Process OMPI jobid: [48530,1] Process rank: 30

 Data for node: bb2a3a24	Num procs: 8
 	Process OMPI jobid: [48530,1] Process rank: 3
 	Process OMPI jobid: [48530,1] Process rank: 7
 	Process OMPI jobid: [48530,1] Process rank: 11
 	Process OMPI jobid: [48530,1] Process rank: 15
 	Process OMPI jobid: [48530,1] Process rank: 19
 	Process OMPI jobid: [48530,1] Process rank: 23
 	Process OMPI jobid: [48530,1] Process rank: 27
 	Process OMPI jobid: [48530,1] Process rank: 31

 =============================================================

     Program PWSCF v.5.0.2 (svn rev. 9392) starts on 25Oct2013 at  9:54:46 

     This program is part of the open-source Quantum ESPRESSO suite
     for quantum simulation of materials; please cite
         "P. Giannozzi et al., J. Phys.:Condens. Matter 21 395502 (2009);
          URL http://www.quantum-espresso.org", 
     in publications or presentations arising from this work. More details at
     http://www.quantum-espresso.org/quote.php

     Parallel version (MPI), running on    32 processors
     R & G space division:  proc/nbgrp/npool/nimage =      32

     Current dimensions of program PWSCF are:
     Max number of different atomic species (ntypx) = 10
     Max number of k-points (npk) =  40000
     Max angular momentum in pseudopotentials (lmaxx) =  3
     Reading input from /gpfs/bb/bxp912/pwscf/batch/Al.1854.in
Warning: card &IONS ignored
Warning: card ION_DYNAMICS='BFGS', ignored
Warning: card / ignored
Warning: card &CELL ignored
Warning: card CELL_DYNAMICS='BFGS', ignored
Warning: card PRESS=0.0, ignored
Warning: card CELL_FACTOR=2.0, ignored
Warning: card / ignored
               file Al.pbe-n-kjpaw_psl.0.1.UPF: wavefunction(s)  3S renormalized

     Subspace diagonalization in iterative solution of the eigenvalue problem:
     a serial algorithm will be used

 
     Parallelization info
     --------------------
     sticks:   dense  smooth     PW     G-vecs:    dense   smooth      PW
     Min         481     324     84                44979    24827    3248
     Max         483     325     85                44982    24855    3250
     Sum       15421   10389   2693              1439361   794839  103959
 


     bravais-lattice index     =           14
     lattice parameter (alat)  =      30.5130  a.u.
     unit-cell volume          =   28409.0236 (a.u.)^3
     number of atoms/cell      =          256
     number of atomic types    =            1
     number of electrons       =       768.00
     number of Kohn-Sham states=          461
     kinetic-energy cutoff     =      35.0000  Ry
     charge density cutoff     =     208.0000  Ry
     convergence threshold     =      1.0E-07
     mixing beta               =       0.7000
     number of iterations used =            8  local-TF  mixing
     Exchange-correlation      =  SLA  PW   PBX  PBC ( 1 4 3 4 0)
     EXX-fraction              =        0.00

     celldm(1)=  30.513037  celldm(2)=   1.000000  celldm(3)=   1.000000
     celldm(4)=   0.000000  celldm(5)=   0.000000  celldm(6)=   0.000000

     crystal axes: (cart. coord. in units of alat)
               a(1) = (   1.000000   0.000000   0.000000 )  
               a(2) = (   0.000000   1.000000   0.000000 )  
               a(3) = (   0.000000   0.000000   1.000000 )  

     reciprocal axes: (cart. coord. in units 2 pi/alat)
               b(1) = (  1.000000  0.000000  0.000000 )  
               b(2) = (  0.000000  1.000000  0.000000 )  
               b(3) = (  0.000000  0.000000  1.000000 )  


     PseudoPot. # 1 for Al read from file:
     /gpfs/bb/bxp912/pseudopotentials/Al.pbe-n-kjpaw_psl.0.1.UPF
     MD5 check sum: c290c600b2b3f4e95cb15d62bc64d19d
     Pseudo is Projector augmented-wave + core cor, Zval =  3.0
     Generated using "atomic" code by A. Dal Corso  v.5.0.2 svn rev. 9392
     Shape of augmentation charge: PSQ
     Using radial grid of 1135 points,  4 beta functions with: 
                l(1) =   0
                l(2) =   0
                l(3) =   1
                l(4) =   1
     Q(r) pseudized with 0 coefficients 


     atomic species   valence    mass     pseudopotential
        N              3.00    26.98154     Al( 1.00)

     No symmetry found



   Cartesian axes

     site n.     atom                  positions (alat units)
         1           N   tau(   1) = (   0.0118350   0.9699130   0.9864930  )
         2           N   tau(   2) = (   0.1432820   0.1144490   0.0073910  )
         3           N   tau(   3) = (   0.1404050   0.9943760   0.1190300  )
         4           N   tau(   4) = (   0.9890640   0.1221680   0.1379590  )
         5           N   tau(   5) = (   0.2656500   0.0171540   0.9855930  )
         6           N   tau(   6) = (   0.2495620   0.1325880   0.1194020  )
         7           N   tau(   7) = (   0.3674260   0.1151480   0.9896080  )
         8           N   tau(   8) = (   0.3528420   0.0092210   0.1570870  )
         9           N   tau(   9) = (   0.9818210   0.0093810   0.2304800  )
        10           N   tau(  10) = (   0.1218710   0.1179700   0.2413960  )
        11           N   tau(  11) = (   0.1142970   0.0016890   0.3665470  )
        12           N   tau(  12) = (   0.0123690   0.1200290   0.3678420  )
        13           N   tau(  13) = (   0.9874910   0.0144020   0.4933100  )
        14           N   tau(  14) = (   0.1149160   0.1291880   0.4802900  )
        15           N   tau(  15) = (   0.1099330   0.9883530   0.6089860  )
        16           N   tau(  16) = (   0.9830480   0.1298770   0.6056990  )
        17           N   tau(  17) = (   0.0234270   0.0256070   0.7584210  )
        18           N   tau(  18) = (   0.1382700   0.1160770   0.7661860  )
        19           N   tau(  19) = (   0.1047770   0.0124240   0.8542770  )
        20           N   tau(  20) = (   0.0209990   0.1165730   0.8860910  )
        21           N   tau(  21) = (   0.0063780   0.2563010   0.0354800  )
        22           N   tau(  22) = (   0.1407060   0.3648240   0.9708390  )
        23           N   tau(  23) = (   0.1051950   0.2374710   0.1430000  )
        24           N   tau(  24) = (   0.0158810   0.3648480   0.1390490  )
        25           N   tau(  25) = (   0.0144690   0.2306000   0.2285780  )
        26           N   tau(  26) = (   0.1513930   0.3872660   0.2597680  )
        27           N   tau(  27) = (   0.1188140   0.2611130   0.3581280  )
        28           N   tau(  28) = (   0.0081230   0.3731130   0.3568860  )
        29           N   tau(  29) = (   0.9954380   0.2383540   0.4826710  )
        30           N   tau(  30) = (   0.1425980   0.3892300   0.4903220  )
        31           N   tau(  31) = (   0.1011250   0.2638940   0.6366480  )
        32           N   tau(  32) = (   0.9650860   0.3707450   0.6324980  )
        33           N   tau(  33) = (   0.9783060   0.2388310   0.7407040  )
        34           N   tau(  34) = (   0.1414680   0.3927470   0.7745810  )
        35           N   tau(  35) = (   0.1156440   0.2165480   0.8653250  )
        36           N   tau(  36) = (   0.0122370   0.3908100   0.8925820  )
        37           N   tau(  37) = (   0.0055880   0.4796960   0.0074620  )
        38           N   tau(  38) = (   0.1289950   0.6393680   0.9961750  )
        39           N   tau(  39) = (   0.1067480   0.4891590   0.1218770  )
        40           N   tau(  40) = (   0.0061840   0.6303710   0.1349950  )
        41           N   tau(  41) = (   0.9875280   0.4813590   0.2537030  )
        42           N   tau(  42) = (   0.1138990   0.6350330   0.2608000  )
        43           N   tau(  43) = (   0.1140570   0.4824280   0.3784970  )
        44           N   tau(  44) = (   0.9956840   0.6101130   0.3636620  )
        45           N   tau(  45) = (   0.9770040   0.4949550   0.5184760  )
        46           N   tau(  46) = (   0.1119840   0.6356510   0.5137810  )
        47           N   tau(  47) = (   0.1261180   0.5157330   0.6352040  )
        48           N   tau(  48) = (   0.0028630   0.6101010   0.6004790  )
        49           N   tau(  49) = (   0.9848300   0.5135370   0.7630410  )
        50           N   tau(  50) = (   0.1288330   0.6089910   0.7629010  )
        51           N   tau(  51) = (   0.1094170   0.5214610   0.8873160  )
        52           N   tau(  52) = (   0.9858020   0.6117150   0.8986850  )
        53           N   tau(  53) = (   0.9882800   0.7305790   0.0181160  )
        54           N   tau(  54) = (   0.1036830   0.8940900   0.0192490  )
        55           N   tau(  55) = (   0.1380110   0.7279140   0.1296950  )
        56           N   tau(  56) = (   0.0189620   0.8612040   0.1010430  )
        57           N   tau(  57) = (   0.0075410   0.7348360   0.2273370  )
        58           N   tau(  58) = (   0.1063050   0.8885820   0.2366960  )
        59           N   tau(  59) = (   0.1363180   0.7713850   0.4031720  )
        60           N   tau(  60) = (   0.9839920   0.8604000   0.3556720  )
        61           N   tau(  61) = (   0.9951090   0.7370570   0.4896570  )
        62           N   tau(  62) = (   0.1047210   0.8706860   0.4883020  )
        63           N   tau(  63) = (   0.1312630   0.7606410   0.5922000  )
        64           N   tau(  64) = (   0.0064750   0.8868380   0.6423920  )
        65           N   tau(  65) = (   0.0187960   0.7472540   0.7554290  )
        66           N   tau(  66) = (   0.1175120   0.8878570   0.7226370  )
        67           N   tau(  67) = (   0.1161800   0.7357360   0.8851690  )
        68           N   tau(  68) = (   0.0104920   0.8639780   0.8655140  )
        69           N   tau(  69) = (   0.2703980   0.9775820   0.2642750  )
        70           N   tau(  70) = (   0.3550340   0.1316900   0.2253050  )
        71           N   tau(  71) = (   0.3924880   0.0133040   0.3763280  )
        72           N   tau(  72) = (   0.2411770   0.1353050   0.3585360  )
        73           N   tau(  73) = (   0.2455370   0.0100670   0.4979430  )
        74           N   tau(  74) = (   0.3746400   0.1163630   0.4919810  )
        75           N   tau(  75) = (   0.3611230   0.0104100   0.6221640  )
        76           N   tau(  76) = (   0.2558280   0.1120430   0.6189270  )
        77           N   tau(  77) = (   0.2414360   0.0218350   0.7390380  )
        78           N   tau(  78) = (   0.3626300   0.1066200   0.7454950  )
        79           N   tau(  79) = (   0.3596510   0.0162350   0.8768380  )
        80           N   tau(  80) = (   0.2747940   0.1193840   0.8859950  )
        81           N   tau(  81) = (   0.2664860   0.2487300   0.0093360  )
        82           N   tau(  82) = (   0.3959200   0.3601650   0.9902350  )
        83           N   tau(  83) = (   0.3858620   0.2352030   0.1443480  )
        84           N   tau(  84) = (   0.2454780   0.3552050   0.1125090  )
        85           N   tau(  85) = (   0.2309620   0.2619570   0.2298940  )
        86           N   tau(  86) = (   0.3689360   0.3619350   0.2725680  )
        87           N   tau(  87) = (   0.3656780   0.2366910   0.3886340  )
        88           N   tau(  88) = (   0.2445370   0.3956230   0.3663560  )
        89           N   tau(  89) = (   0.2370810   0.2578500   0.5073800  )
        90           N   tau(  90) = (   0.3665420   0.3834840   0.4965510  )
        91           N   tau(  91) = (   0.3922910   0.2674110   0.6351350  )
        92           N   tau(  92) = (   0.2419430   0.3630300   0.6077580  )
        93           N   tau(  93) = (   0.2688740   0.2439440   0.7341220  )
        94           N   tau(  94) = (   0.3857560   0.3959360   0.7343230  )
        95           N   tau(  95) = (   0.3869650   0.2567140   0.8564940  )
        96           N   tau(  96) = (   0.2785910   0.3634750   0.8509050  )
        97           N   tau(  97) = (   0.2388060   0.5143150   0.9957330  )
        98           N   tau(  98) = (   0.3794380   0.6160950   0.0141180  )
        99           N   tau(  99) = (   0.3914300   0.5088870   0.1077410  )
       100           N   tau( 100) = (   0.2667880   0.6279200   0.1204310  )
       101           N   tau( 101) = (   0.2430050   0.5110440   0.2306610  )
       102           N   tau( 102) = (   0.3883400   0.6389870   0.2582510  )
       103           N   tau( 103) = (   0.3606040   0.5140940   0.3606350  )
       104           N   tau( 104) = (   0.2518160   0.6339590   0.3766350  )
       105           N   tau( 105) = (   0.2597150   0.4900460   0.5161000  )
       106           N   tau( 106) = (   0.3830920   0.6119690   0.4855940  )
       107           N   tau( 107) = (   0.3804400   0.5161710   0.6138100  )
       108           N   tau( 108) = (   0.2613120   0.6351120   0.6291650  )
       109           N   tau( 109) = (   0.2594910   0.5105730   0.7391980  )
       110           N   tau( 110) = (   0.3928930   0.6181270   0.7573400  )
       111           N   tau( 111) = (   0.3599280   0.4794020   0.8826050  )
       112           N   tau( 112) = (   0.2351280   0.6419150   0.8807060  )
       113           N   tau( 113) = (   0.2603810   0.7409390   0.9839320  )
       114           N   tau( 114) = (   0.3948540   0.8871020   0.0174240  )
       115           N   tau( 115) = (   0.3588100   0.7326140   0.1079040  )
       116           N   tau( 116) = (   0.2704900   0.8873030   0.1095270  )
       117           N   tau( 117) = (   0.2418360   0.7561180   0.2670330  )
       118           N   tau( 118) = (   0.3829410   0.8989880   0.2130780  )
       119           N   tau( 119) = (   0.3726690   0.7331960   0.3693310  )
       120           N   tau( 120) = (   0.2381040   0.8700280   0.3935040  )
       121           N   tau( 121) = (   0.2415180   0.7410290   0.4889900  )
       122           N   tau( 122) = (   0.3888170   0.8649550   0.4825390  )
       123           N   tau( 123) = (   0.3797480   0.7591800   0.6396830  )
       124           N   tau( 124) = (   0.2659330   0.8682760   0.6322750  )
       125           N   tau( 125) = (   0.2515830   0.7427780   0.7523090  )
       126           N   tau( 126) = (   0.3766250   0.8915550   0.7559340  )
       127           N   tau( 127) = (   0.3846730   0.7263830   0.8621490  )
       128           N   tau( 128) = (   0.2268410   0.8577680   0.8909320  )
       129           N   tau( 129) = (   0.5138770   0.0050490   0.9778920  )
       130           N   tau( 130) = (   0.6311300   0.1206080   0.0033430  )
       131           N   tau( 131) = (   0.6359330   0.0108790   0.1353040  )
       132           N   tau( 132) = (   0.4899510   0.1151480   0.1377310  )
       133           N   tau( 133) = (   0.4966140   0.0138210   0.2330490  )
       134           N   tau( 134) = (   0.6328000   0.1421970   0.2566990  )
       135           N   tau( 135) = (   0.6087210   0.0137390   0.3577760  )
       136           N   tau( 136) = (   0.4759640   0.1412440   0.3854200  )
       137           N   tau( 137) = (   0.5373010   0.9769330   0.5057080  )
       138           N   tau( 138) = (   0.6339510   0.1517770   0.4973250  )
       139           N   tau( 139) = (   0.6169040   0.0049440   0.6400840  )
       140           N   tau( 140) = (   0.5163370   0.1402680   0.6324040  )
       141           N   tau( 141) = (   0.5016030   0.0151890   0.7369170  )
       142           N   tau( 142) = (   0.6460120   0.1025920   0.7248570  )
       143           N   tau( 143) = (   0.6335390   0.0080220   0.8822830  )
       144           N   tau( 144) = (   0.5015740   0.1113200   0.8878820  )
       145           N   tau( 145) = (   0.5108240   0.2655330   0.0144530  )
       146           N   tau( 146) = (   0.6115910   0.3698430   0.0102120  )
       147           N   tau( 147) = (   0.6152080   0.2579970   0.1299760  )
       148           N   tau( 148) = (   0.5095920   0.3870980   0.1094890  )
       149           N   tau( 149) = (   0.4751740   0.2421660   0.2308760  )
       150           N   tau( 150) = (   0.6055570   0.3802480   0.2396570  )
       151           N   tau( 151) = (   0.6133930   0.2607290   0.3668130  )
       152           N   tau( 152) = (   0.4913140   0.3695030   0.3490770  )
       153           N   tau( 153) = (   0.5184970   0.2650670   0.5276020  )
       154           N   tau( 154) = (   0.6293470   0.3706490   0.5116690  )
       155           N   tau( 155) = (   0.6186510   0.2569100   0.6461170  )
       156           N   tau( 156) = (   0.4957110   0.3891770   0.5906440  )
       157           N   tau( 157) = (   0.4903980   0.2632510   0.7285650  )
       158           N   tau( 158) = (   0.6079500   0.3542600   0.7534250  )
       159           N   tau( 159) = (   0.6063850   0.2677590   0.8632000  )
       160           N   tau( 160) = (   0.5192500   0.3609000   0.9076950  )
       161           N   tau( 161) = (   0.4848580   0.5216940   0.0136960  )
       162           N   tau( 162) = (   0.6176820   0.6180650   0.9884380  )
       163           N   tau( 163) = (   0.6345940   0.5188860   0.1404880  )
       164           N   tau( 164) = (   0.4950820   0.6222910   0.1143090  )
       165           N   tau( 165) = (   0.4934230   0.5070790   0.2409820  )
       166           N   tau( 166) = (   0.6342280   0.6334450   0.2589910  )
       167           N   tau( 167) = (   0.6192190   0.4791410   0.3848870  )
       168           N   tau( 168) = (   0.5114500   0.6109420   0.3762630  )
       169           N   tau( 169) = (   0.5067110   0.5194160   0.5024330  )
       170           N   tau( 170) = (   0.6422780   0.6378490   0.4968630  )
       171           N   tau( 171) = (   0.6180660   0.5220680   0.6105800  )
       172           N   tau( 172) = (   0.5104740   0.6067100   0.6310640  )
       173           N   tau( 173) = (   0.5151500   0.4751550   0.7755210  )
       174           N   tau( 174) = (   0.6107710   0.6291920   0.7601210  )
       175           N   tau( 175) = (   0.6421010   0.5090650   0.8811610  )
       176           N   tau( 176) = (   0.5071650   0.6423940   0.8964710  )
       177           N   tau( 177) = (   0.5098380   0.7571660   0.0141220  )
       178           N   tau( 178) = (   0.6350210   0.8779700   0.0139870  )
       179           N   tau( 179) = (   0.6336370   0.7560600   0.1415420  )
       180           N   tau( 180) = (   0.4880770   0.8584790   0.1057240  )
       181           N   tau( 181) = (   0.4927590   0.7585140   0.2568490  )
       182           N   tau( 182) = (   0.6357100   0.8627690   0.2323710  )
       183           N   tau( 183) = (   0.6284360   0.7612920   0.3873300  )
       184           N   tau( 184) = (   0.5047120   0.8656180   0.3823940  )
       185           N   tau( 185) = (   0.5191900   0.7361800   0.4865810  )
       186           N   tau( 186) = (   0.6368310   0.8627200   0.4810330  )
       187           N   tau( 187) = (   0.6234720   0.7589710   0.6016930  )
       188           N   tau( 188) = (   0.5154330   0.8665000   0.6293840  )
       189           N   tau( 189) = (   0.4921900   0.7650810   0.7387390  )
       190           N   tau( 190) = (   0.6090340   0.8898180   0.7713150  )
       191           N   tau( 191) = (   0.6427970   0.7541940   0.8818220  )
       192           N   tau( 192) = (   0.4963960   0.8814850   0.8918320  )
       193           N   tau( 193) = (   0.7620150   0.0049360   0.9860710  )
       194           N   tau( 194) = (   0.8895470   0.1148420   0.0118220  )
       195           N   tau( 195) = (   0.8674040   0.0063670   0.1122060  )
       196           N   tau( 196) = (   0.7562420   0.1364450   0.1400540  )
       197           N   tau( 197) = (   0.7437020   0.9781890   0.2553870  )
       198           N   tau( 198) = (   0.8633440   0.1199820   0.2387910  )
       199           N   tau( 199) = (   0.8566570   0.0139700   0.3859580  )
       200           N   tau( 200) = (   0.7543340   0.1157320   0.3888920  )
       201           N   tau( 201) = (   0.7406610   0.9922110   0.4965680  )
       202           N   tau( 202) = (   0.8628480   0.1401050   0.5136600  )
       203           N   tau( 203) = (   0.8705510   0.0111790   0.6406780  )
       204           N   tau( 204) = (   0.7253750   0.1217860   0.6086200  )
       205           N   tau( 205) = (   0.7344650   0.9932490   0.7546240  )
       206           N   tau( 206) = (   0.8498220   0.1388880   0.7582570  )
       207           N   tau( 207) = (   0.8691100   0.9778980   0.8675840  )
       208           N   tau( 208) = (   0.7354070   0.1388990   0.8875870  )
       209           N   tau( 209) = (   0.7532330   0.2694200   0.0039160  )
       210           N   tau( 210) = (   0.8614070   0.3646430   0.9813420  )
       211           N   tau( 211) = (   0.8609070   0.2233520   0.1256670  )
       212           N   tau( 212) = (   0.7727180   0.3788410   0.1245170  )
       213           N   tau( 213) = (   0.7593980   0.2355860   0.2326960  )
       214           N   tau( 214) = (   0.8835000   0.3596500   0.2729670  )
       215           N   tau( 215) = (   0.8586260   0.2375280   0.3840880  )
       216           N   tau( 216) = (   0.7648880   0.3693460   0.3680210  )
       217           N   tau( 217) = (   0.7715200   0.2586390   0.4724160  )
       218           N   tau( 218) = (   0.8831720   0.4013540   0.4913670  )
       219           N   tau( 219) = (   0.8698720   0.2369660   0.6079630  )
       220           N   tau( 220) = (   0.7368050   0.3724380   0.6396380  )
       221           N   tau( 221) = (   0.7615540   0.2590900   0.7237100  )
       222           N   tau( 222) = (   0.8574740   0.3595900   0.7692130  )
       223           N   tau( 223) = (   0.8647490   0.2512190   0.8783930  )
       224           N   tau( 224) = (   0.7551210   0.3982370   0.8427360  )
       225           N   tau( 225) = (   0.7433940   0.4932720   0.0154670  )
       226           N   tau( 226) = (   0.8614830   0.6314400   0.9814980  )
       227           N   tau( 227) = (   0.8866360   0.4977300   0.1405230  )
       228           N   tau( 228) = (   0.7301890   0.6567240   0.1134520  )
       229           N   tau( 229) = (   0.7564040   0.4927960   0.2585260  )
       230           N   tau( 230) = (   0.8934210   0.6070900   0.2661630  )
       231           N   tau( 231) = (   0.8955610   0.5151210   0.3828530  )
       232           N   tau( 232) = (   0.7429110   0.6202960   0.3990120  )
       233           N   tau( 233) = (   0.7450530   0.4778520   0.5148990  )
       234           N   tau( 234) = (   0.8808660   0.6235790   0.5270160  )
       235           N   tau( 235) = (   0.8887170   0.4816130   0.6432230  )
       236           N   tau( 236) = (   0.7282980   0.6046940   0.6082120  )
       237           N   tau( 237) = (   0.7542650   0.4787540   0.7571490  )
       238           N   tau( 238) = (   0.8412190   0.6393500   0.7390760  )
       239           N   tau( 239) = (   0.8836340   0.4939140   0.9069880  )
       240           N   tau( 240) = (   0.7642170   0.6017010   0.8765700  )
       241           N   tau( 241) = (   0.7165600   0.7393510   0.9881640  )
       242           N   tau( 242) = (   0.8761970   0.8689680   0.9825380  )
       243           N   tau( 243) = (   0.8914560   0.7337600   0.1402960  )
       244           N   tau( 244) = (   0.7654730   0.8926470   0.1161860  )
       245           N   tau( 245) = (   0.7485780   0.7401080   0.2397360  )
       246           N   tau( 246) = (   0.8902510   0.8837240   0.2580160  )
       247           N   tau( 247) = (   0.8664070   0.7602850   0.3813840  )
       248           N   tau( 248) = (   0.7700820   0.8482580   0.3663710  )
       249           N   tau( 249) = (   0.7325650   0.7647350   0.4795770  )
       250           N   tau( 250) = (   0.8656560   0.8511300   0.4811870  )
       251           N   tau( 251) = (   0.8804890   0.7331720   0.6392430  )
       252           N   tau( 252) = (   0.7580460   0.8663190   0.6145440  )
       253           N   tau( 253) = (   0.7706060   0.7605110   0.7291020  )
       254           N   tau( 254) = (   0.8629890   0.8584910   0.7573930  )
       255           N   tau( 255) = (   0.8690880   0.7381300   0.8840090  )
       256           N   tau( 256) = (   0.7610020   0.8945590   0.8980470  )

     number of k points=     4  Marzari-Vanderbilt smearing, width (Ry)=  0.0500
                       cart. coord. in units 2pi/alat
        k(    1) = (   0.2500000   0.2500000   0.2500000), wk =   0.5000000
        k(    2) = (  -0.2500000  -0.2500000   0.2500000), wk =   0.5000000
        k(    3) = (  -0.2500000   0.2500000  -0.2500000), wk =   0.5000000
        k(    4) = (   0.2500000  -0.2500000  -0.2500000), wk =   0.5000000

     Dense  grid:  1439361 G-vectors     FFT dimensions: ( 144, 144, 144)

     Smooth grid:   794839 G-vectors     FFT dimensions: ( 120, 120, 120)

     Largest allocated arrays     est. size (Mb)     dimensions
        Kohn-Sham Wavefunctions        21.93 Mb     (   3117,  461)
        NL pseudopotentials            97.41 Mb     (   3117, 2048)
        Each V/rho on FFT grid          1.58 Mb     ( 103680)
        Each G-vector array             0.34 Mb     (  44980)
        G-vector shells                 0.03 Mb     (   3845)
     Largest temporary arrays     est. size (Mb)     dimensions
        Auxiliary wavefunctions        87.70 Mb     (   3117, 1844)
        Each subspace H/S matrix       51.89 Mb     (1844,1844)
        Each <psi_i|beta_j> matrix     14.41 Mb     (   2048,  461)
        Arrays for rho mixing          12.66 Mb     ( 103680,   8)

     Check: negative/imaginary core charge=   -0.000006    0.000000

     Initial potential from superposition of free atoms

     starting charge  767.41368, renormalised to  768.00000
     Starting wfc are 1024 randomized atomic wfcs
     Checking if some PAW data can be deallocated... 

     total cpu time spent up to now is      155.3 secs

     Self-consistent Calculation

     iteration #  1     ecut=    35.00 Ry     beta=0.70
     Davidson diagonalization with overlap
     ethr =  1.00E-02,  avg # of iterations =  3.0

     total cpu time spent up to now is      439.7 secs

     total energy              =  -10103.23291445 Ry
     Harris-Foulkes estimate   =  -10105.51772221 Ry
     estimated scf accuracy    <       9.67291138 Ry

     iteration #  2     ecut=    35.00 Ry     beta=0.70
     Davidson diagonalization with overlap
     ethr =  1.26E-03,  avg # of iterations =  2.0

     total cpu time spent up to now is      617.5 secs

     total energy              =  -10102.86233253 Ry
     Harris-Foulkes estimate   =  -10103.90727782 Ry
     estimated scf accuracy    <       2.46580917 Ry

     iteration #  3     ecut=    35.00 Ry     beta=0.70
     Davidson diagonalization with overlap
     ethr =  3.21E-04,  avg # of iterations =  5.0

     total cpu time spent up to now is      972.1 secs

     total energy              =  -10103.65579190 Ry
     Harris-Foulkes estimate   =  -10103.76762043 Ry
     estimated scf accuracy    <       0.63773277 Ry

     iteration #  4     ecut=    35.00 Ry     beta=0.70
     Davidson diagonalization with overlap
     ethr =  8.30E-05,  avg # of iterations =  2.0

     total cpu time spent up to now is     1153.9 secs

     total energy              =  -10103.62306196 Ry
     Harris-Foulkes estimate   =  -10103.68847513 Ry
     estimated scf accuracy    <       0.19623285 Ry

     iteration #  5     ecut=    35.00 Ry     beta=0.70
     Davidson diagonalization with overlap
     ethr =  2.56E-05,  avg # of iterations =  9.8

     total cpu time spent up to now is     1542.8 secs

     total energy              =  -10103.67202969 Ry
     Harris-Foulkes estimate   =  -10103.67857462 Ry
     estimated scf accuracy    <       0.04542195 Ry

     iteration #  6     ecut=    35.00 Ry     beta=0.70
     Davidson diagonalization with overlap
     ethr =  5.91E-06,  avg # of iterations =  5.2

     total cpu time spent up to now is     1754.5 secs

     total energy              =  -10103.67009943 Ry
     Harris-Foulkes estimate   =  -10103.67445046 Ry
     estimated scf accuracy    <       0.01357781 Ry

     iteration #  7     ecut=    35.00 Ry     beta=0.70
     Davidson diagonalization with overlap
     ethr =  1.77E-06,  avg # of iterations =  8.2

     total cpu time spent up to now is     2140.9 secs

     total energy              =  -10103.67349894 Ry
     Harris-Foulkes estimate   =  -10103.67439505 Ry
     estimated scf accuracy    <       0.00503093 Ry

     iteration #  8     ecut=    35.00 Ry     beta=0.70
     Davidson diagonalization with overlap
     ethr =  6.55E-07,  avg # of iterations =  2.0

     total cpu time spent up to now is     2318.8 secs

     total energy              =  -10103.67366933 Ry
     Harris-Foulkes estimate   =  -10103.67382957 Ry
     estimated scf accuracy    <       0.00067335 Ry

     iteration #  9     ecut=    35.00 Ry     beta=0.70
     Davidson diagonalization with overlap
     ethr =  8.77E-08,  avg # of iterations =  4.2

     total cpu time spent up to now is     2645.9 secs

     total energy              =  -10103.67388497 Ry
     Harris-Foulkes estimate   =  -10103.67389352 Ry
     estimated scf accuracy    <       0.00013899 Ry

     iteration # 10     ecut=    35.00 Ry     beta=0.70
     Davidson diagonalization with overlap
     ethr =  1.81E-08,  avg # of iterations =  1.5

     total cpu time spent up to now is     2818.9 secs

     total energy              =  -10103.67387120 Ry
     Harris-Foulkes estimate   =  -10103.67388894 Ry
     estimated scf accuracy    <       0.00008802 Ry

     iteration # 11     ecut=    35.00 Ry     beta=0.70
     Davidson diagonalization with overlap
     ethr =  1.15E-08,  avg # of iterations =  2.2

     total cpu time spent up to now is     3014.9 secs

     total energy              =  -10103.67387998 Ry
     Harris-Foulkes estimate   =  -10103.67388006 Ry
     estimated scf accuracy    <       0.00000099 Ry

     iteration # 12     ecut=    35.00 Ry     beta=0.70
     Davidson diagonalization with overlap
     ethr =  1.29E-10,  avg # of iterations =  5.0

     total cpu time spent up to now is     3441.3 secs

     total energy              =  -10103.67388171 Ry
     Harris-Foulkes estimate   =  -10103.67388172 Ry
     estimated scf accuracy    <       0.00000017 Ry

     iteration # 13     ecut=    35.00 Ry     beta=0.70
     Davidson diagonalization with overlap
     ethr =  2.22E-11,  avg # of iterations =  6.5

     total cpu time spent up to now is     3667.8 secs

     End of self-consistent calculation

          k = 0.2500 0.2500 0.2500 ( 99252 PWs)   bands (ev):

    -3.5520  -3.3965  -3.2939  -3.2661  -3.1426  -3.0236  -2.9840  -2.8446
    -2.7824  -2.7625  -2.7170  -2.5828  -2.5445  -2.4684  -2.4318  -2.3784
    -2.2742  -2.2423  -2.1668  -2.1348  -2.1098  -1.9803  -1.9360  -1.9035
    -1.8287  -1.7853  -1.7277  -1.6979  -1.6549  -1.5678  -1.5306  -1.5013
    -1.4427  -1.4039  -1.3312  -1.2940  -1.2372  -1.1888  -1.1284  -1.1176
    -1.0346  -1.0089  -0.9492  -0.9280  -0.8303  -0.7869  -0.7277  -0.6876
    -0.6528  -0.5997  -0.5701  -0.5405  -0.4975  -0.4438  -0.4209  -0.3848
    -0.3554  -0.3081  -0.2334  -0.2232  -0.1683  -0.1232  -0.0921  -0.0783
    -0.0233   0.0147   0.0432   0.0796   0.1126   0.1361   0.1592   0.2114
     0.2821   0.3084   0.3499   0.3758   0.4168   0.4338   0.4717   0.4883
     0.5448   0.5803   0.6191   0.6675   0.6840   0.7538   0.7806   0.8181
     0.8334   0.8988   0.9282   0.9536   0.9998   1.0171   1.0471   1.0700
     1.0886   1.1195   1.1514   1.1858   1.2104   1.2440   1.2697   1.2925
     1.3308   1.3469   1.3697   1.4189   1.4454   1.4844   1.5078   1.5413
     1.5702   1.5855   1.6222   1.6710   1.6969   1.7583   1.7753   1.7930
     1.8334   1.8469   1.8912   1.9137   1.9339   1.9644   1.9781   2.0121
     2.0280   2.0684   2.1383   2.1606   2.1755   2.2371   2.2595   2.2814
     2.3335   2.3394   2.3624   2.3736   2.4116   2.4294   2.4665   2.5023
     2.5228   2.5458   2.5503   2.5876   2.6200   2.6401   2.6728   2.6983
     2.7100   2.7520   2.7794   2.7887   2.8175   2.8305   2.8699   2.8866
     2.9153   2.9427   2.9602   2.9733   3.0002   3.0395   3.0842   3.0983
     3.1382   3.1520   3.1736   3.2040   3.2412   3.2613   3.2835   3.3122
     3.3310   3.3557   3.3741   3.4024   3.4344   3.4427   3.4749   3.4971
     3.5369   3.5490   3.5708   3.6033   3.6489   3.6567   3.6857   3.7066
     3.7328   3.7490   3.7635   3.7849   3.8382   3.8586   3.8904   3.9081
     3.9246   3.9390   3.9630   3.9863   4.0191   4.0301   4.0551   4.0909
     4.0980   4.1136   4.1487   4.1629   4.1872   4.2247   4.2423   4.2628
     4.2920   4.3074   4.3295   4.3587   4.3777   4.4109   4.4254   4.4380
     4.4611   4.4858   4.4951   4.5155   4.5446   4.5768   4.5864   4.6058
     4.6288   4.6527   4.6652   4.7099   4.7300   4.7479   4.7846   4.8042
     4.8217   4.8508   4.8830   4.8980   4.9276   4.9432   4.9615   4.9877
     5.0103   5.0254   5.0477   5.0702   5.0896   5.0981   5.1321   5.1455
     5.1766   5.1933   5.1966   5.2268   5.2441   5.2699   5.2900   5.3093
     5.3246   5.3529   5.3616   5.3935   5.4024   5.4252   5.4481   5.4606
     5.4773   5.4955   5.5306   5.5444   5.5770   5.6050   5.6156   5.6280
     5.6492   5.6702   5.6967   5.7035   5.7476   5.7751   5.7883   5.8040
     5.8393   5.8648   5.8852   5.9042   5.9262   5.9330   5.9636   5.9894
     6.0157   6.0226   6.0689   6.0791   6.0981   6.1322   6.1504   6.1829
     6.2049   6.2220   6.2506   6.2621   6.2833   6.3159   6.3485   6.3525
     6.3750   6.4140   6.4307   6.4573   6.4949   6.5156   6.5240   6.5386
     6.5512   6.5741   6.6030   6.6200   6.6250   6.6541   6.6660   6.6893
     6.7139   6.7388   6.7657   6.7777   6.7898   6.8168   6.8278   6.8436
     6.8538   6.8675   6.9016   6.9261   6.9379   6.9574   6.9673   6.9866
     7.0184   7.0212   7.0457   7.0658   7.1006   7.1114   7.1416   7.1554
     7.1685   7.2117   7.2181   7.2379   7.2494   7.2652   7.2842   7.3088
     7.3310   7.3471   7.3644   7.3797   7.4017   7.4108   7.4210   7.4442
     7.4767   7.5086   7.5298   7.5367   7.5517   7.5789   7.5956   7.6142
     7.6436   7.6794   7.6951   7.7115   7.7201   7.7439   7.7553   7.7824
     7.8091   7.8276   7.8578   7.8723   7.8895   7.8953   7.9241   7.9476
     7.9565   7.9792   7.9987   8.0121   8.0455   8.0761   8.0893   8.1064
     8.1139   8.1334   8.1602   8.1905   8.2010   8.2250   8.2509   8.2615
     8.2637   8.2861   8.2968   8.3159   8.3415   8.3523   8.3697   8.3789
     8.4044   8.4394   8.4483   8.4660   8.4841   8.4951   8.5202   8.5390
     8.5522   8.5589   8.5899   8.5990   8.6102   8.6444   8.6550   8.6724
     8.6927   8.7279   8.7457   8.7558   8.7704   8.7883   8.7990   8.8263
     8.8456   8.8629   8.8848   8.9043   8.9216   8.9562   8.9680   8.9836
     8.9901   9.0201   9.0477   9.0807   9.0929   9.1141   9.1404   9.1474
     9.1637   9.1826   9.1932   9.2193   9.2428

          k =-0.2500-0.2500 0.2500 ( 99252 PWs)   bands (ev):

    -3.5474  -3.4155  -3.3026  -3.2307  -3.1356  -3.0390  -2.9773  -2.8856
    -2.7981  -2.7140  -2.6849  -2.6350  -2.5392  -2.4780  -2.4307  -2.3430
    -2.3075  -2.2183  -2.1647  -2.1319  -2.0651  -2.0103  -1.9608  -1.8976
    -1.8268  -1.7935  -1.7447  -1.6736  -1.6302  -1.6195  -1.5636  -1.4952
    -1.4587  -1.3635  -1.3285  -1.3092  -1.2237  -1.1688  -1.1405  -1.0975
    -1.0263  -0.9827  -0.9165  -0.8848  -0.8483  -0.8126  -0.7819  -0.6839
    -0.6582  -0.6253  -0.5814  -0.5652  -0.5016  -0.4536  -0.4123  -0.3772
    -0.3343  -0.2914  -0.2474  -0.2218  -0.1641  -0.1367  -0.0999  -0.0750
    -0.0269  -0.0223   0.0450   0.0832   0.1090   0.1608   0.1934   0.2388
     0.2899   0.3194   0.3481   0.3639   0.4005   0.4295   0.4846   0.4986
     0.5578   0.6087   0.6358   0.6614   0.7058   0.7507   0.7895   0.8164
     0.8355   0.8916   0.9157   0.9383   0.9747   0.9982   1.0175   1.0652
     1.0891   1.1071   1.1362   1.1574   1.1848   1.2297   1.2550   1.2858
     1.3273   1.3523   1.3884   1.4236   1.4613   1.4683   1.5361   1.5725
     1.5924   1.6290   1.6566   1.6713   1.6937   1.7122   1.7531   1.7768
     1.7945   1.8365   1.8845   1.9107   1.9454   1.9732   1.9949   2.0327
     2.0630   2.1049   2.1237   2.1624   2.1889   2.2248   2.2713   2.2960
     2.3137   2.3275   2.3419   2.3994   2.4212   2.4324   2.4486   2.4943
     2.5160   2.5514   2.5668   2.5991   2.6131   2.6517   2.6704   2.6858
     2.7181   2.7324   2.7853   2.8163   2.8508   2.8684   2.8788   2.8893
     2.9159   2.9362   2.9515   2.9942   3.0162   3.0195   3.0622   3.0807
     3.0992   3.1236   3.1587   3.1991   3.2343   3.2605   3.2695   3.2841
     3.3333   3.3562   3.3695   3.3884   3.4313   3.4418   3.4604   3.5094
     3.5198   3.5423   3.5822   3.6023   3.6228   3.6344   3.6689   3.6917
     3.7292   3.7479   3.7747   3.8123   3.8317   3.8517   3.8812   3.9035
     3.9370   3.9622   3.9885   4.0006   4.0094   4.0527   4.0581   4.0806
     4.1041   4.1226   4.1457   4.1995   4.2101   4.2245   4.2580   4.2704
     4.2989   4.3081   4.3261   4.3537   4.3619   4.4007   4.4051   4.4410
     4.4575   4.4791   4.5055   4.5218   4.5375   4.5659   4.5859   4.5992
     4.6460   4.6586   4.6695   4.7054   4.7368   4.7666   4.7896   4.8098
     4.8398   4.8735   4.8882   4.9106   4.9284   4.9426   4.9506   4.9675
     5.0026   5.0420   5.0480   5.0718   5.0982   5.1274   5.1461   5.1504
     5.1652   5.1824   5.2053   5.2270   5.2531   5.2625   5.2852   5.3027
     5.3243   5.3378   5.3749   5.3932   5.4200   5.4303   5.4442   5.4685
     5.5097   5.5193   5.5358   5.5617   5.5743   5.5865   5.6031   5.6271
     5.6399   5.6724   5.6977   5.7147   5.7381   5.7420   5.7667   5.7931
     5.8266   5.8370   5.8648   5.8823   5.9114   5.9268   5.9458   5.9819
     5.9879   6.0093   6.0273   6.0535   6.0765   6.1037   6.1341   6.1670
     6.1759   6.2162   6.2490   6.2666   6.3093   6.3244   6.3307   6.3618
     6.3690   6.4139   6.4356   6.4581   6.4868   6.4995   6.5164   6.5397
     6.5766   6.5899   6.6073   6.6383   6.6537   6.6689   6.6783   6.7024
     6.7255   6.7430   6.7702   6.7889   6.7985   6.8185   6.8428   6.8605
     6.8737   6.8964   6.9147   6.9364   6.9513   6.9795   6.9922   7.0092
     7.0213   7.0426   7.0609   7.0801   7.0916   7.1110   7.1244   7.1620
     7.1864   7.2030   7.2188   7.2294   7.2515   7.2698   7.2887   7.3029
     7.3140   7.3371   7.3622   7.3786   7.4013   7.4223   7.4358   7.4559
     7.4767   7.4953   7.5120   7.5348   7.5426   7.5778   7.5833   7.6078
     7.6273   7.6705   7.6840   7.6902   7.7322   7.7343   7.7573   7.7840
     7.8063   7.8261   7.8406   7.8553   7.8837   7.8955   7.9229   7.9528
     7.9634   7.9857   7.9980   8.0346   8.0406   8.0500   8.0813   8.1031
     8.1201   8.1383   8.1555   8.1782   8.1845   8.1974   8.2168   8.2453
     8.2771   8.2925   8.3069   8.3109   8.3391   8.3527   8.3656   8.3853
     8.4226   8.4452   8.4597   8.4708   8.4898   8.5030   8.5238   8.5497
     8.5589   8.5655   8.6083   8.6176   8.6295   8.6524   8.6596   8.6802
     8.6937   8.7202   8.7310   8.7560   8.7668   8.7850   8.8006   8.8230
     8.8491   8.8648   8.8798   8.9099   8.9273   8.9575   8.9889   9.0033
     9.0166   9.0346   9.0486   9.0675   9.0921   9.1077   9.1261   9.1513
     9.1623   9.1761   9.1984   9.2165   9.2399

          k =-0.2500 0.2500-0.2500 ( 99252 PWs)   bands (ev):

    -3.5532  -3.3985  -3.2913  -3.2456  -3.1541  -3.0411  -2.9987  -2.8927
    -2.7295  -2.7031  -2.6670  -2.6184  -2.5482  -2.5313  -2.4232  -2.3645
    -2.3373  -2.2204  -2.1774  -2.0988  -2.0448  -2.0250  -1.9735  -1.8901
    -1.8280  -1.7955  -1.7340  -1.7078  -1.6488  -1.5566  -1.5289  -1.4879
    -1.4420  -1.3717  -1.3636  -1.2701  -1.2519  -1.2101  -1.1110  -1.0793
    -1.0128  -1.0028  -0.9598  -0.8983  -0.8451  -0.7995  -0.7290  -0.7137
    -0.6623  -0.6288  -0.5996  -0.5635  -0.5238  -0.4556  -0.4415  -0.3834
    -0.3232  -0.2776  -0.2474  -0.2112  -0.1702  -0.1377  -0.1182  -0.0462
    -0.0206   0.0049   0.0481   0.0724   0.1227   0.1660   0.2211   0.2247
     0.2817   0.3232   0.3696   0.3763   0.4254   0.4632   0.4835   0.5038
     0.5513   0.5702   0.6081   0.6689   0.6834   0.7336   0.7747   0.7934
     0.8564   0.8697   0.8992   0.9299   0.9656   0.9950   1.0298   1.0698
     1.0943   1.1240   1.1504   1.1889   1.2250   1.2384   1.2565   1.2870
     1.3057   1.3567   1.3790   1.4071   1.4509   1.4617   1.4761   1.5343
     1.5660   1.5913   1.6312   1.6611   1.7013   1.7267   1.7778   1.7968
     1.8476   1.8735   1.9053   1.9273   1.9435   1.9947   2.0023   2.0465
     2.0548   2.1121   2.1428   2.1576   2.1987   2.2165   2.2445   2.2698
     2.2938   2.3347   2.3548   2.4010   2.4215   2.4521   2.4771   2.5081
     2.5185   2.5296   2.5762   2.6095   2.6291   2.6531   2.6696   2.6936
     2.7086   2.7263   2.7608   2.7944   2.8032   2.8343   2.8504   2.8868
     2.9264   2.9486   2.9719   2.9761   2.9914   3.0133   3.0638   3.1043
     3.1070   3.1406   3.1791   3.2030   3.2255   3.2510   3.2600   3.2909
     3.3152   3.3279   3.3810   3.3957   3.4302   3.4630   3.4940   3.5073
     3.5300   3.5596   3.5859   3.6005   3.6491   3.6605   3.6769   3.7002
     3.7315   3.7530   3.7753   3.7971   3.8118   3.8384   3.8553   3.8836
     3.9143   3.9447   3.9679   3.9932   4.0381   4.0515   4.0676   4.0875
     4.1147   4.1412   4.1570   4.1769   4.2091   4.2378   4.2552   4.2754
     4.2833   4.3006   4.3166   4.3296   4.3707   4.3913   4.4133   4.4353
     4.4688   4.4878   4.5174   4.5333   4.5592   4.5788   4.5890   4.6093
     4.6160   4.6471   4.6832   4.7082   4.7278   4.7532   4.7845   4.8064
     4.8294   4.8737   4.8918   4.9060   4.9075   4.9312   4.9511   4.9693
     5.0145   5.0250   5.0409   5.0730   5.0847   5.1008   5.1172   5.1552
     5.1641   5.1960   5.2188   5.2346   5.2565   5.2754   5.2992   5.3198
     5.3293   5.3508   5.3822   5.4020   5.4135   5.4298   5.4528   5.4646
     5.4820   5.5026   5.5194   5.5368   5.5659   5.5872   5.6118   5.6250
     5.6516   5.6666   5.6906   5.7073   5.7282   5.7494   5.7704   5.8077
     5.8402   5.8541   5.8780   5.8974   5.9111   5.9296   5.9586   6.0134
     6.0214   6.0514   6.0729   6.0797   6.1124   6.1233   6.1487   6.1732
     6.1901   6.2127   6.2606   6.2680   6.2797   6.3018   6.3214   6.3510
     6.3709   6.4100   6.4416   6.4477   6.4665   6.4849   6.5191   6.5256
     6.5430   6.5674   6.5822   6.6175   6.6585   6.6677   6.6836   6.6943
     6.7111   6.7330   6.7610   6.7767   6.7942   6.8118   6.8434   6.8545
     6.8726   6.8968   6.9162   6.9205   6.9490   6.9637   6.9836   7.0045
     7.0191   7.0368   7.0596   7.0747   7.0923   7.1063   7.1208   7.1451
     7.1707   7.1960   7.2087   7.2214   7.2353   7.2559   7.2800   7.3090
     7.3270   7.3444   7.3640   7.3870   7.4002   7.4179   7.4356   7.4560
     7.4825   7.5008   7.5213   7.5523   7.5630   7.5695   7.5999   7.6131
     7.6308   7.6546   7.6696   7.6976   7.7379   7.7474   7.7622   7.7951
     7.8136   7.8190   7.8549   7.8723   7.8880   7.9072   7.9173   7.9427
     7.9607   7.9869   7.9926   8.0190   8.0406   8.0718   8.0806   8.0857
     8.1275   8.1341   8.1602   8.1822   8.1961   8.2193   8.2318   8.2507
     8.2631   8.2765   8.2949   8.3049   8.3491   8.3716   8.3846   8.4094
     8.4188   8.4294   8.4567   8.4747   8.4875   8.5044   8.5244   8.5459
     8.5638   8.5781   8.5911   8.6014   8.6332   8.6492   8.6658   8.6747
     8.7039   8.7206   8.7464   8.7507   8.7910   8.8019   8.8228   8.8410
     8.8690   8.8893   8.9018   8.9201   8.9492   8.9553   8.9947   9.0056
     9.0218   9.0403   9.0610   9.0750   9.0860   9.1033   9.1221   9.1371
     9.1541   9.1685   9.1819   9.2084   9.2240

          k = 0.2500-0.2500-0.2500 ( 99252 PWs)   bands (ev):

    -3.5495  -3.4049  -3.3209  -3.1941  -3.1696  -3.0448  -2.9622  -2.8909
    -2.7963  -2.7514  -2.6609  -2.5718  -2.5278  -2.4982  -2.4466  -2.3807
    -2.2847  -2.2611  -2.1933  -2.1158  -2.0335  -1.9908  -1.9530  -1.8939
    -1.8634  -1.8076  -1.7162  -1.6923  -1.6134  -1.5775  -1.5500  -1.4757
    -1.4433  -1.3642  -1.3401  -1.3154  -1.2498  -1.2036  -1.1631  -1.1066
    -1.0681  -1.0242  -0.9586  -0.8424  -0.8219  -0.7725  -0.7320  -0.6922
    -0.6484  -0.6172  -0.6051  -0.5490  -0.5113  -0.4443  -0.4028  -0.3665
    -0.3261  -0.2726  -0.2206  -0.2047  -0.1721  -0.1466  -0.0981  -0.0626
    -0.0210   0.0057   0.0522   0.0615   0.0928   0.1393   0.1786   0.2100
     0.2368   0.2687   0.3130   0.3605   0.3707   0.4411   0.4948   0.5398
     0.5653   0.5863   0.6153   0.6626   0.7123   0.7387   0.7843   0.8205
     0.8446   0.8702   0.9411   0.9664   0.9963   1.0299   1.0440   1.0674
     1.1168   1.1297   1.1442   1.1815   1.2142   1.2426   1.2612   1.2992
     1.3166   1.3505   1.4008   1.4142   1.4398   1.4797   1.4943   1.5362
     1.5677   1.5780   1.6506   1.6838   1.7091   1.7382   1.7678   1.8098
     1.8304   1.8722   1.8834   1.8957   1.9336   1.9406   1.9933   2.0213
     2.0333   2.0721   2.1245   2.1569   2.1713   2.2051   2.2373   2.2618
     2.3222   2.3384   2.3548   2.3876   2.4049   2.4522   2.4590   2.4921
     2.5124   2.5492   2.5707   2.5808   2.6163   2.6398   2.6706   2.6878
     2.7034   2.7522   2.7688   2.7881   2.8314   2.8458   2.8721   2.8954
     2.9112   2.9566   2.9719   2.9839   3.0194   3.0366   3.0592   3.1107
     3.1400   3.1576   3.1655   3.2056   3.2272   3.2585   3.2736   3.2975
     3.3520   3.3565   3.3814   3.4076   3.4388   3.4612   3.4845   3.5139
     3.5279   3.5724   3.5867   3.6246   3.6531   3.6585   3.6754   3.7032
     3.7306   3.7647   3.7938   3.8071   3.8231   3.8444   3.8501   3.8970
     3.9256   3.9462   3.9784   4.0055   4.0201   4.0330   4.0405   4.0631
     4.0839   4.0967   4.1196   4.1308   4.1905   4.2284   4.2433   4.2650
     4.2812   4.3132   4.3303   4.3471   4.3758   4.3934   4.4065   4.4484
     4.4609   4.4781   4.4944   4.5213   4.5583   4.5782   4.5833   4.6005
     4.6205   4.6575   4.6711   4.7010   4.7285   4.7503   4.7711   4.8137
     4.8356   4.8650   4.8783   4.8939   4.9070   4.9354   4.9588   4.9891
     4.9997   5.0277   5.0491   5.0647   5.0814   5.1027   5.1575   5.1697
     5.1873   5.2017   5.2241   5.2348   5.2543   5.2769   5.2892   5.3054
     5.3403   5.3587   5.3675   5.3756   5.3916   5.4176   5.4413   5.4621
     5.4853   5.5048   5.5186   5.5598   5.5697   5.5985   5.6063   5.6201
     5.6410   5.6630   5.6994   5.7302   5.7400   5.7755   5.7982   5.8038
     5.8308   5.8676   5.8924   5.9027   5.9220   5.9342   5.9703   5.9902
     6.0197   6.0322   6.0626   6.0846   6.0915   6.1169   6.1420   6.1554
     6.1899   6.2210   6.2518   6.2604   6.2927   6.3189   6.3361   6.3797
     6.3820   6.4094   6.4260   6.4462   6.4727   6.4976   6.5120   6.5386
     6.5824   6.5899   6.6044   6.6216   6.6422   6.6597   6.6769   6.6793
     6.7199   6.7374   6.7499   6.7798   6.8062   6.8358   6.8448   6.8588
     6.8811   6.8939   6.9202   6.9294   6.9470   6.9622   6.9813   7.0006
     7.0130   7.0425   7.0618   7.0800   7.0948   7.1068   7.1194   7.1442
     7.1687   7.1816   7.1904   7.2122   7.2364   7.2431   7.2699   7.2882
     7.3029   7.3199   7.3457   7.3781   7.3974   7.4213   7.4366   7.4398
     7.4796   7.4920   7.5199   7.5350   7.5460   7.5710   7.5915   7.6115
     7.6455   7.6575   7.6656   7.7037   7.7200   7.7435   7.7575   7.7785
     7.8024   7.8213   7.8548   7.8781   7.9064   7.9162   7.9273   7.9470
     7.9695   7.9805   7.9870   8.0370   8.0548   8.0712   8.0819   8.1107
     8.1226   8.1460   8.1587   8.1730   8.1884   8.2132   8.2207   8.2620
     8.2763   8.3020   8.3078   8.3264   8.3472   8.3557   8.3882   8.4070
     8.4225   8.4360   8.4463   8.4591   8.4791   8.4976   8.4999   8.5335
     8.5556   8.5666   8.5875   8.6123   8.6308   8.6545   8.6654   8.6755
     8.6895   8.7081   8.7306   8.7458   8.7581   8.7906   8.8190   8.8439
     8.8511   8.8783   8.8880   8.9174   8.9240   8.9613   8.9819   8.9992
     9.0073   9.0395   9.0558   9.0690   9.0909   9.1049   9.1247   9.1531
     9.1784   9.1918   9.2094   9.2170   9.2348

     the Fermi energy is     7.7882 ev

!    total energy              =  -10103.67388166 Ry
     Harris-Foulkes estimate   =  -10103.67388171 Ry
     estimated scf accuracy    <       0.00000007 Ry

     total all-electron energy =   -124316.226019 Ry

     The total energy is the sum of the following terms:

     one-electron contribution =     754.43864355 Ry
     hartree contribution      =      30.84667615 Ry
     xc contribution           =    -783.72753959 Ry
     ewald contribution        =   -1336.04862516 Ry
     one-center paw contrib.   =   -8769.17254672 Ry
     smearing contrib. (-TS)   =      -0.01048988 Ry

     convergence has been achieved in  13 iterations

     Forces acting on atoms (Ry/au):

     atom    1 type  1   force =    -0.23630662    0.23358282   -0.06160975
     atom    2 type  1   force =    -0.05465267    0.03038618   -0.03034138
     atom    3 type  1   force =     0.01065740    0.05827782    0.05166039
     atom    4 type  1   force =     0.02626645   -0.03680275   -0.11011038
     atom    5 type  1   force =    -0.11271147   -0.16751887    0.11525812
     atom    6 type  1   force =    -0.02750121   -0.00830463   -0.00292698
     atom    7 type  1   force =     0.17417755    0.10041340    0.13930521
     atom    8 type  1   force =     0.02767542    0.15692881   -0.26113054
     atom    9 type  1   force =     0.04002264   -0.05560610    0.06004517
     atom   10 type  1   force =     0.03702698   -0.04485674    0.01504549
     atom   11 type  1   force =     0.02731364   -0.03517069   -0.00070974
     atom   12 type  1   force =    -0.07687917    0.02417391   -0.04876630
     atom   13 type  1   force =    -0.00915812   -0.04810543   -0.00257718
     atom   14 type  1   force =     0.05436620    0.00115386    0.05693534
     atom   15 type  1   force =     0.05406037    0.09024286   -0.03972699
     atom   16 type  1   force =     0.07899659   -0.02196194    0.06245396
     atom   17 type  1   force =    -0.24751815   -0.02869970   -0.22117274
     atom   18 type  1   force =     0.02924459    0.13328953   -0.13632313
     atom   19 type  1   force =     0.24240980   -0.21276463    0.22931543
     atom   20 type  1   force =    -0.19257881    0.03771874    0.07573617
     atom   21 type  1   force =    -0.04910053   -0.02832856   -0.11650525
     atom   22 type  1   force =     0.03709236   -0.00924035    0.02564274
     atom   23 type  1   force =     0.24892655    0.01319520   -0.19865484
     atom   24 type  1   force =    -0.04421577    0.04149382    0.02038665
     atom   25 type  1   force =    -0.23085504    0.06518206    0.26095879
     atom   26 type  1   force =    -0.10886110    0.00435484   -0.10794443
     atom   27 type  1   force =     0.02637885   -0.03271266    0.03054615
     atom   28 type  1   force =    -0.00685955   -0.05605664    0.07215493
     atom   29 type  1   force =     0.00546193    0.05790347    0.00380309
     atom   30 type  1   force =    -0.07920764   -0.04323953    0.04004010
     atom   31 type  1   force =     0.02239611   -0.00281403   -0.01198766
     atom   32 type  1   force =     0.11716855   -0.12068428   -0.00258041
     atom   33 type  1   force =     0.01915949    0.00213135    0.03175308
     atom   34 type  1   force =    -0.03161818   -0.01359373   -0.02471208
     atom   35 type  1   force =     0.07422060    0.17605114    0.05412173
     atom   36 type  1   force =    -0.04154580   -0.08528211   -0.09830777
     atom   37 type  1   force =    -0.02377125    0.04395098    0.06908800
     atom   38 type  1   force =    -0.02766508   -0.05467842    0.08275838
     atom   39 type  1   force =     0.06414557    0.03757440    0.02472612
     atom   40 type  1   force =     0.01095579   -0.15529962   -0.07228906
     atom   41 type  1   force =     0.07524376    0.02400267   -0.01810565
     atom   42 type  1   force =     0.07399473   -0.05738708    0.02316908
     atom   43 type  1   force =    -0.00916232    0.12601631   -0.00977251
     atom   44 type  1   force =     0.14375859    0.09981868    0.08866913
     atom   45 type  1   force =     0.16005837    0.02588040   -0.05088329
     atom   46 type  1   force =     0.09979176   -0.07360248   -0.10537770
     atom   47 type  1   force =     0.00940582   -0.05222512   -0.02276521
     atom   48 type  1   force =     0.00099979    0.06515113    0.17988554
     atom   49 type  1   force =     0.01899031   -0.00702159    0.00650438
     atom   50 type  1   force =    -0.01878408    0.05652091   -0.03315947
     atom   51 type  1   force =     0.04936512   -0.04827092    0.00461216
     atom   52 type  1   force =     0.02849321    0.04683854   -0.04087558
     atom   53 type  1   force =     0.01992124    0.02654742   -0.06977035
     atom   54 type  1   force =     0.45466859   -0.16713769   -0.20378625
     atom   55 type  1   force =     0.02054695    0.06119646   -0.01160194
     atom   56 type  1   force =    -0.24325440   -0.06908502    0.24485968
     atom   57 type  1   force =     0.00881260    0.13972037    0.14027521
     atom   58 type  1   force =     0.02636974   -0.02818746    0.02606094
     atom   59 type  1   force =    -0.12884213   -0.16466853   -0.18541168
     atom   60 type  1   force =     0.13057502    0.00941106    0.10010689
     atom   61 type  1   force =    -0.02453285    0.03585836   -0.00462461
     atom   62 type  1   force =    -0.05398251    0.16079046    0.07672338
     atom   63 type  1   force =    -0.01932891    0.02393687    0.11534987
     atom   64 type  1   force =    -0.17394214   -0.05343782   -0.07923382
     atom   65 type  1   force =    -0.02238128   -0.02113194   -0.03615338
     atom   66 type  1   force =     0.13268230   -0.03924419    0.12710912
     atom   67 type  1   force =    -0.04165573    0.06551336   -0.03869099
     atom   68 type  1   force =    -0.00824645    0.00744076   -0.00381453
     atom   69 type  1   force =    -0.14805844    0.01786770    0.10755033
     atom   70 type  1   force =    -0.01423719   -0.02994005    0.21454978
     atom   71 type  1   force =    -0.02030016   -0.07056136   -0.01840830
     atom   72 type  1   force =    -0.00237246   -0.01722941    0.01273242
     atom   73 type  1   force =    -0.01208026   -0.03607945   -0.03229635
     atom   74 type  1   force =    -0.02723761    0.01338372    0.08390793
     atom   75 type  1   force =     0.08256451   -0.08043247   -0.02476951
     atom   76 type  1   force =    -0.07004820    0.11158232   -0.02996626
     atom   77 type  1   force =     0.00370123   -0.15218347    0.02859665
     atom   78 type  1   force =     0.08271599    0.08149957    0.01002791
     atom   79 type  1   force =     0.15432123   -0.19479248   -0.09222049
     atom   80 type  1   force =    -0.19289344    0.19598163   -0.13345698
     atom   81 type  1   force =    -0.00201062   -0.02054446   -0.06878903
     atom   82 type  1   force =    -0.10540261    0.03087525    0.04363987
     atom   83 type  1   force =    -0.18668898    0.13706171   -0.30764395
     atom   84 type  1   force =     0.00676824    0.09409487   -0.00344482
     atom   85 type  1   force =     0.06138999   -0.07023270    0.06707295
     atom   86 type  1   force =    -0.05759988    0.01283676   -0.07814389
     atom   87 type  1   force =    -0.04471362    0.08692886   -0.01225526
     atom   88 type  1   force =     0.07988617   -0.02474351    0.07122837
     atom   89 type  1   force =     0.01117801   -0.08461363   -0.05891748
     atom   90 type  1   force =     0.03378021   -0.03992022   -0.03463871
     atom   91 type  1   force =    -0.12223593   -0.02693895   -0.13400819
     atom   92 type  1   force =     0.01439740    0.03907643    0.11567107
     atom   93 type  1   force =    -0.04937617    0.00212258    0.01217293
     atom   94 type  1   force =    -0.01116817   -0.00548342   -0.01201066
     atom   95 type  1   force =     0.02981145   -0.05219814    0.02146125
     atom   96 type  1   force =    -0.08265867   -0.03211025    0.02415900
     atom   97 type  1   force =     0.00623465   -0.03100851    0.01742427
     atom   98 type  1   force =    -0.07602855    0.08678662   -0.15128161
     atom   99 type  1   force =    -0.15857112   -0.12561372    0.17711212
     atom  100 type  1   force =    -0.09736081   -0.08008552    0.03421777
     atom  101 type  1   force =     0.02453951    0.01434610    0.00730141
     atom  102 type  1   force =    -0.02392810   -0.05074511   -0.07865397
     atom  103 type  1   force =     0.02156786   -0.03912778   -0.00147591
     atom  104 type  1   force =    -0.04970132   -0.05835189   -0.01494487
     atom  105 type  1   force =    -0.04062613    0.08786674   -0.03100072
     atom  106 type  1   force =    -0.02978123    0.05988950    0.02062078
     atom  107 type  1   force =    -0.00161338   -0.02777578    0.03984024
     atom  108 type  1   force =    -0.01569960    0.00208485   -0.02581839
     atom  109 type  1   force =     0.00836323   -0.01872464    0.01542971
     atom  110 type  1   force =     0.00344916   -0.04035090   -0.02986742
     atom  111 type  1   force =     0.06520910    0.09249180    0.00614092
     atom  112 type  1   force =     0.06800869   -0.10216404   -0.06422267
     atom  113 type  1   force =     0.01394919    0.04811295    0.07236502
     atom  114 type  1   force =    -0.13787375    0.04172381   -0.14906680
     atom  115 type  1   force =     0.08736527    0.13459698    0.05706076
     atom  116 type  1   force =    -0.09417408   -0.05183338   -0.01804548
     atom  117 type  1   force =    -0.00277570    0.02112284   -0.04063104
     atom  118 type  1   force =     0.10737926   -0.26402012    0.14596951
     atom  119 type  1   force =     0.02549001    0.08319488    0.06224649
     atom  120 type  1   force =     0.08458481    0.08895792   -0.02984167
     atom  121 type  1   force =     0.14341787   -0.01616555    0.09409497
     atom  122 type  1   force =    -0.03828324    0.00656062    0.05103380
     atom  123 type  1   force =    -0.01278610   -0.02631718   -0.05900791
     atom  124 type  1   force =    -0.03402354    0.02566073   -0.02442422
     atom  125 type  1   force =    -0.01528709    0.02674974    0.00308503
     atom  126 type  1   force =    -0.00671313   -0.00006200    0.01767432
     atom  127 type  1   force =    -0.03957187    0.07988974    0.04267681
     atom  128 type  1   force =     0.01141044    0.06461171   -0.03672125
     atom  129 type  1   force =    -0.02881898   -0.04973290    0.15032768
     atom  130 type  1   force =    -0.01557753    0.03409204    0.04248780
     atom  131 type  1   force =    -0.01673405   -0.00321901   -0.02394386
     atom  132 type  1   force =     0.04029087    0.05389161   -0.13070225
     atom  133 type  1   force =     0.02328089   -0.08202687    0.09371836
     atom  134 type  1   force =    -0.02915320   -0.02471866   -0.00773893
     atom  135 type  1   force =     0.00565360   -0.01125301    0.01903616
     atom  136 type  1   force =     0.13649752   -0.00772993   -0.04576792
     atom  137 type  1   force =    -0.05362859    0.05706895   -0.01122454
     atom  138 type  1   force =    -0.05458548   -0.00990457   -0.05133450
     atom  139 type  1   force =     0.00873051   -0.14757802   -0.14293686
     atom  140 type  1   force =    -0.05204996   -0.04603494   -0.03774590
     atom  141 type  1   force =    -0.05108575   -0.01000616    0.05229147
     atom  142 type  1   force =    -0.05480501    0.19876725    0.20742781
     atom  143 type  1   force =     0.00104273   -0.01380118   -0.02795148
     atom  144 type  1   force =    -0.00792715    0.11741674   -0.09312094
     atom  145 type  1   force =    -0.04837640   -0.19118478    0.01817871
     atom  146 type  1   force =     0.21483100    0.07571009    0.01646871
     atom  147 type  1   force =     0.03899190   -0.03054223    0.01432951
     atom  148 type  1   force =    -0.07681249    0.03257813    0.09011377
     atom  149 type  1   force =     0.22751151    0.03630248    0.22576193
     atom  150 type  1   force =     0.05128408    0.00024460    0.00636582
     atom  151 type  1   force =     0.01513820    0.00441090    0.01321285
     atom  152 type  1   force =     0.03481800    0.01155268    0.08376006
     atom  153 type  1   force =    -0.04880913   -0.09954882   -0.10872944
     atom  154 type  1   force =     0.02781977   -0.00274878   -0.02930188
     atom  155 type  1   force =     0.06764132   -0.04091442   -0.05586076
     atom  156 type  1   force =    -0.01517272    0.08028578    0.10070366
     atom  157 type  1   force =     0.04714648   -0.02576021    0.13114999
     atom  158 type  1   force =     0.06007524    0.13594196   -0.02492423
     atom  159 type  1   force =     0.11737186   -0.20082258    0.04959644
     atom  160 type  1   force =    -0.13179728    0.17267499   -0.14439400
     atom  161 type  1   force =     0.18099258   -0.12912076   -0.19674339
     atom  162 type  1   force =     0.04231729   -0.00645719    0.07533367
     atom  163 type  1   force =    -0.00704229   -0.02009212   -0.01879800
     atom  164 type  1   force =     0.06953151    0.10365293    0.10860562
     atom  165 type  1   force =     0.00320552   -0.00861676    0.01097579
     atom  166 type  1   force =    -0.02773680   -0.02621699    0.01649044
     atom  167 type  1   force =     0.02430965    0.01416721   -0.01822580
     atom  168 type  1   force =     0.00572377    0.02484495   -0.03002075
     atom  169 type  1   force =    -0.00113934   -0.04610263   -0.04220791
     atom  170 type  1   force =    -0.11958378   -0.03173707   -0.00291061
     atom  171 type  1   force =     0.00975796   -0.17341866    0.04277827
     atom  172 type  1   force =    -0.09017153    0.12403462    0.03862255
     atom  173 type  1   force =    -0.01072127    0.06632123   -0.00110892
     atom  174 type  1   force =     0.02304274    0.00355379   -0.00483779
     atom  175 type  1   force =    -0.05738134   -0.05263565   -0.01753189
     atom  176 type  1   force =    -0.03231218   -0.02753582   -0.06029519
     atom  177 type  1   force =     0.01231477   -0.08322403   -0.08701808
     atom  178 type  1   force =    -0.01715278    0.02499055   -0.00758117
     atom  179 type  1   force =    -0.11585146   -0.00337496   -0.08833852
     atom  180 type  1   force =     0.15460845    0.05364078    0.20544324
     atom  181 type  1   force =     0.02551081    0.00993787   -0.02584959
     atom  182 type  1   force =    -0.03193511    0.08763506    0.08540262
     atom  183 type  1   force =    -0.04867106   -0.09830363   -0.21829979
     atom  184 type  1   force =     0.00463779    0.02895764   -0.05396709
     atom  185 type  1   force =    -0.10740800   -0.00138322    0.03896907
     atom  186 type  1   force =    -0.05185598    0.17060974    0.07082347
     atom  187 type  1   force =     0.03747792   -0.03439536    0.08013246
     atom  188 type  1   force =    -0.03060710    0.05627501   -0.03822683
     atom  189 type  1   force =     0.05726006   -0.04282067    0.07118746
     atom  190 type  1   force =     0.01570654   -0.04006301   -0.01434305
     atom  191 type  1   force =    -0.12192077    0.03107683   -0.18474593
     atom  192 type  1   force =    -0.00222876   -0.04627181   -0.05014391
     atom  193 type  1   force =    -0.01376221    0.07965500    0.08513773
     atom  194 type  1   force =     0.00305183    0.03291180   -0.09376151
     atom  195 type  1   force =     0.02591889   -0.03302880    0.03623456
     atom  196 type  1   force =    -0.16508018   -0.18247816   -0.14408351
     atom  197 type  1   force =     0.02867195    0.03842534    0.01945772
     atom  198 type  1   force =     0.04716477   -0.04010998    0.11689676
     atom  199 type  1   force =     0.08425934   -0.06685203   -0.02332398
     atom  200 type  1   force =    -0.07905200    0.04182529   -0.04304516
     atom  201 type  1   force =    -0.00978404   -0.00668373    0.02144901
     atom  202 type  1   force =    -0.01361292   -0.15280714   -0.10848106
     atom  203 type  1   force =    -0.00428616   -0.02408162    0.00077369
     atom  204 type  1   force =     0.11451799    0.01301208   -0.01905482
     atom  205 type  1   force =     0.09558670   -0.05721624    0.00659247
     atom  206 type  1   force =     0.01946414   -0.07112868    0.00178264
     atom  207 type  1   force =     0.10833210    0.11377417   -0.04746724
     atom  208 type  1   force =     0.02602795    0.02116811   -0.03629727
     atom  209 type  1   force =    -0.07617460   -0.07047784   -0.00364440
     atom  210 type  1   force =     0.06473560    0.03393899    0.04850233
     atom  211 type  1   force =     0.13748159    0.14833446   -0.05945058
     atom  212 type  1   force =    -0.02035194   -0.01383427    0.03690575
     atom  213 type  1   force =    -0.04669607    0.15901303    0.15004054
     atom  214 type  1   force =    -0.01919344   -0.01378174   -0.07902753
     atom  215 type  1   force =     0.21557956   -0.03502695   -0.21352900
     atom  216 type  1   force =    -0.05957671    0.03633832    0.00331318
     atom  217 type  1   force =    -0.22098275    0.05144782    0.22206582
     atom  218 type  1   force =    -0.09256427   -0.15724992   -0.02181928
     atom  219 type  1   force =    -0.01558547    0.12823727    0.08986610
     atom  220 type  1   force =     0.00618219    0.05169996   -0.06854134
     atom  221 type  1   force =    -0.07527776   -0.09867975    0.05937327
     atom  222 type  1   force =     0.21550899    0.02774683   -0.10618813
     atom  223 type  1   force =     0.02053102   -0.05494968    0.01040883
     atom  224 type  1   force =    -0.14191631   -0.26337928    0.42308574
     atom  225 type  1   force =     0.01166606    0.01829421   -0.01213317
     atom  226 type  1   force =    -0.01115861   -0.02974442    0.17220366
     atom  227 type  1   force =    -0.02922985    0.00561542   -0.05230244
     atom  228 type  1   force =     0.09531728   -0.13373436   -0.01636151
     atom  229 type  1   force =    -0.00249844    0.01463953    0.00491371
     atom  230 type  1   force =    -0.11506098    0.06833524   -0.10172948
     atom  231 type  1   force =    -0.12026478   -0.09200212    0.04372920
     atom  232 type  1   force =     0.09013970   -0.02895307   -0.09059679
     atom  233 type  1   force =     0.02076290    0.02159339   -0.03983944
     atom  234 type  1   force =    -0.11120269   -0.00893395   -0.07861009
     atom  235 type  1   force =    -0.14523092    0.13189453    0.02450162
     atom  236 type  1   force =     0.15737767    0.09138388    0.08786341
     atom  237 type  1   force =    -0.01396349    0.33587887   -0.30312489
     atom  238 type  1   force =     0.05042521   -0.17011626    0.05771252
     atom  239 type  1   force =    -0.02513229   -0.00236875   -0.05461065
     atom  240 type  1   force =    -0.04679365    0.03113153   -0.04722025
     atom  241 type  1   force =     0.15927871    0.02350561    0.13122970
     atom  242 type  1   force =     0.06157878   -0.03393700    0.08615082
     atom  243 type  1   force =    -0.12027034    0.03455491   -0.02968389
     atom  244 type  1   force =    -0.01443357   -0.06180555    0.00022998
     atom  245 type  1   force =     0.07742915    0.02857198    0.06898519
     atom  246 type  1   force =    -0.10207612   -0.00741570   -0.12132868
     atom  247 type  1   force =     0.12215033   -0.27321557   -0.10467642
     atom  248 type  1   force =    -0.16439666    0.18911426   -0.10889084
     atom  249 type  1   force =     0.16764429   -0.12569050    0.13234869
     atom  250 type  1   force =     0.05791961    0.13516703    0.17101171
     atom  251 type  1   force =     0.09451630    0.07722617   -0.10698095
     atom  252 type  1   force =    -0.00290992    0.03254658   -0.00661511
     atom  253 type  1   force =    -0.22544428   -0.01426599    0.04618159
     atom  254 type  1   force =     0.10267689    0.09809869    0.01247877
     atom  255 type  1   force =     0.00336426    0.06030512   -0.06783712
     atom  256 type  1   force =    -0.15105262   -0.14991187   -0.09774138

     Total force =     2.540830     Total SCF correction =     0.000396


     entering subroutine stress ...

          total   stress  (Ry/bohr**3)                   (kbar)     P=  133.17
   0.00090308  -0.00004704   0.00005226        132.85     -6.92      7.69
  -0.00004704   0.00090599   0.00000112         -6.92    133.28      0.17
   0.00005226   0.00000112   0.00090674          7.69      0.17    133.39


     Writing output data file 4e93d1f9f6bb3_98fe.save
 
     init_run     :    149.86s CPU    154.48s WALL (       1 calls)
     electrons    :   3425.51s CPU   3512.50s WALL (       1 calls)
     forces       :     70.90s CPU     71.16s WALL (       1 calls)
     stress       :    338.06s CPU    338.74s WALL (       1 calls)

     Called by init_run:
     wfcinit      :    137.48s CPU    141.62s WALL (       1 calls)
     potinit      :      1.32s CPU      1.46s WALL (       1 calls)

     Called by electrons:
     c_bands      :   2952.94s CPU   3023.52s WALL (      13 calls)
     sum_band     :    334.39s CPU    346.75s WALL (      13 calls)
     v_of_rho     :      2.99s CPU      4.02s WALL (      14 calls)
     newd         :    110.12s CPU    110.69s WALL (      14 calls)
     mix_rho      :      8.09s CPU      9.36s WALL (      13 calls)

     Called by c_bands:
     init_us_2    :      4.83s CPU      4.90s WALL (     116 calls)
     cegterg      :   2934.66s CPU   3004.92s WALL (      52 calls)

     Called by *egterg:
     h_psi        :   1143.11s CPU   1207.86s WALL (     283 calls)
     s_psi        :    195.16s CPU    196.16s WALL (     283 calls)
     g_psi        :      2.53s CPU      2.53s WALL (     227 calls)
     cdiaghg      :    669.26s CPU    670.25s WALL (     279 calls)

     Called by h_psi:
     add_vuspsi   :    195.71s CPU    196.68s WALL (     283 calls)

     General routines
     calbec       :    679.84s CPU    680.80s WALL (     343 calls)
     fft          :     85.36s CPU     87.60s WALL (     245 calls)
     ffts         :      2.04s CPU      3.16s WALL (     183 calls)
     fftw         :    570.82s CPU    645.49s WALL (  161956 calls)
     interpolate  :      0.98s CPU      1.34s WALL (      27 calls)
     davcio       :      0.00s CPU      2.50s WALL (       4 calls)
 
     Parallel routines
     fft_scatter  :    542.02s CPU    593.00s WALL (  162384 calls)
 
     PAW routines
     PAW_pot      :     12.92s CPU     13.21s WALL (      14 calls)
     PAW_ddot     :      5.36s CPU      5.41s WALL (     301 calls)
 
     PWSCF        :     1h 6m CPU        1h 8m WALL

 
   This run was terminated on:  11: 2:49  25Oct2013            

=------------------------------------------------------------------------------=
   JOB DONE.
=------------------------------------------------------------------------------=
