
 ========================   JOB MAP   ========================

 Data for node: bb2a3c04	Num procs: 16
 	Process OMPI jobid: [6849,1] Process rank: 0
 	Process OMPI jobid: [6849,1] Process rank: 2
 	Process OMPI jobid: [6849,1] Process rank: 4
 	Process OMPI jobid: [6849,1] Process rank: 6
 	Process OMPI jobid: [6849,1] Process rank: 8
 	Process OMPI jobid: [6849,1] Process rank: 10
 	Process OMPI jobid: [6849,1] Process rank: 12
 	Process OMPI jobid: [6849,1] Process rank: 14
 	Process OMPI jobid: [6849,1] Process rank: 16
 	Process OMPI jobid: [6849,1] Process rank: 18
 	Process OMPI jobid: [6849,1] Process rank: 20
 	Process OMPI jobid: [6849,1] Process rank: 22
 	Process OMPI jobid: [6849,1] Process rank: 24
 	Process OMPI jobid: [6849,1] Process rank: 26
 	Process OMPI jobid: [6849,1] Process rank: 28
 	Process OMPI jobid: [6849,1] Process rank: 30

 Data for node: bb2a3a23	Num procs: 16
 	Process OMPI jobid: [6849,1] Process rank: 1
 	Process OMPI jobid: [6849,1] Process rank: 3
 	Process OMPI jobid: [6849,1] Process rank: 5
 	Process OMPI jobid: [6849,1] Process rank: 7
 	Process OMPI jobid: [6849,1] Process rank: 9
 	Process OMPI jobid: [6849,1] Process rank: 11
 	Process OMPI jobid: [6849,1] Process rank: 13
 	Process OMPI jobid: [6849,1] Process rank: 15
 	Process OMPI jobid: [6849,1] Process rank: 17
 	Process OMPI jobid: [6849,1] Process rank: 19
 	Process OMPI jobid: [6849,1] Process rank: 21
 	Process OMPI jobid: [6849,1] Process rank: 23
 	Process OMPI jobid: [6849,1] Process rank: 25
 	Process OMPI jobid: [6849,1] Process rank: 27
 	Process OMPI jobid: [6849,1] Process rank: 29
 	Process OMPI jobid: [6849,1] Process rank: 31

 =============================================================

     Program PWSCF v.5.0.2 (svn rev. 9392) starts on 18Oct2013 at 22:49:27 

     This program is part of the open-source Quantum ESPRESSO suite
     for quantum simulation of materials; please cite
         "P. Giannozzi et al., J. Phys.:Condens. Matter 21 395502 (2009);
          URL http://www.quantum-espresso.org", 
     in publications or presentations arising from this work. More details at
     http://www.quantum-espresso.org/quote.php

     Parallel version (MPI), running on    32 processors
     R & G space division:  proc/nbgrp/npool/nimage =      32

     Current dimensions of program PWSCF are:
     Max number of different atomic species (ntypx) = 10
     Max number of k-points (npk) =  40000
     Max angular momentum in pseudopotentials (lmaxx) =  3
     Reading input from /gpfs/bb/bxp912/pwscf/input_4e90969bb213e_8511.in
Warning: card &IONS ignored
Warning: card ION_DYNAMICS='BFGS', ignored
Warning: card / ignored
Warning: card &CELL ignored
Warning: card CELL_DYNAMICS='BFGS', ignored
Warning: card PRESS=0.0, ignored
Warning: card CELL_FACTOR=2.0, ignored
Warning: card / ignored
               file Al.pbe-n-kjpaw_psl.0.1.UPF: wavefunction(s)  3S renormalized

     Subspace diagonalization in iterative solution of the eigenvalue problem:
     a serial algorithm will be used

 
     Parallelization info
     --------------------
     sticks:   dense  smooth     PW     G-vecs:    dense   smooth      PW
     Min         481     324     84                44979    24827    3248
     Max         483     325     85                44982    24855    3250
     Sum       15421   10389   2693              1439361   794839  103959
 


     bravais-lattice index     =           14
     lattice parameter (alat)  =      30.5130  a.u.
     unit-cell volume          =   28409.0236 (a.u.)^3
     number of atoms/cell      =          256
     number of atomic types    =            1
     number of electrons       =       768.00
     number of Kohn-Sham states=          461
     kinetic-energy cutoff     =      35.0000  Ry
     charge density cutoff     =     208.0000  Ry
     convergence threshold     =      1.0E-07
     mixing beta               =       0.7000
     number of iterations used =            8  local-TF  mixing
     Exchange-correlation      =  SLA  PW   PBX  PBC ( 1 4 3 4 0)
     EXX-fraction              =        0.00

     celldm(1)=  30.513037  celldm(2)=   1.000000  celldm(3)=   1.000000
     celldm(4)=   0.000000  celldm(5)=   0.000000  celldm(6)=   0.000000

     crystal axes: (cart. coord. in units of alat)
               a(1) = (   1.000000   0.000000   0.000000 )  
               a(2) = (   0.000000   1.000000   0.000000 )  
               a(3) = (   0.000000   0.000000   1.000000 )  

     reciprocal axes: (cart. coord. in units 2 pi/alat)
               b(1) = (  1.000000  0.000000  0.000000 )  
               b(2) = (  0.000000  1.000000  0.000000 )  
               b(3) = (  0.000000  0.000000  1.000000 )  


     PseudoPot. # 1 for Al read from file:
     /gpfs/bb/bxp912/pseudopotentials/Al.pbe-n-kjpaw_psl.0.1.UPF
     MD5 check sum: c290c600b2b3f4e95cb15d62bc64d19d
     Pseudo is Projector augmented-wave + core cor, Zval =  3.0
     Generated using "atomic" code by A. Dal Corso  v.5.0.2 svn rev. 9392
     Shape of augmentation charge: PSQ
     Using radial grid of 1135 points,  4 beta functions with: 
                l(1) =   0
                l(2) =   0
                l(3) =   1
                l(4) =   1
     Q(r) pseudized with 0 coefficients 


     atomic species   valence    mass     pseudopotential
        N              3.00    26.98154     Al( 1.00)

     No symmetry found



   Cartesian axes

     site n.     atom                  positions (alat units)
         1           N   tau(   1) = (   0.9927640   0.9840310   0.9938730  )
         2           N   tau(   2) = (   0.1231390   0.1209360   0.9919980  )
         3           N   tau(   3) = (   0.1392570   0.0213640   0.1191670  )
         4           N   tau(   4) = (   0.0026050   0.1049910   0.1187490  )
         5           N   tau(   5) = (   0.2593680   0.9859360   0.9803150  )
         6           N   tau(   6) = (   0.2688560   0.1452590   0.1110540  )
         7           N   tau(   7) = (   0.3845720   0.1084040   0.0065220  )
         8           N   tau(   8) = (   0.3928180   0.9931210   0.1077330  )
         9           N   tau(   9) = (   0.0220100   0.9914120   0.2357640  )
        10           N   tau(  10) = (   0.1323400   0.1171750   0.2283790  )
        11           N   tau(  11) = (   0.1293450   0.9932090   0.3667930  )
        12           N   tau(  12) = (   0.9990720   0.1137860   0.3704030  )
        13           N   tau(  13) = (   0.9827610   0.9884290   0.4866600  )
        14           N   tau(  14) = (   0.1343080   0.1211630   0.4919510  )
        15           N   tau(  15) = (   0.1193840   0.9844790   0.6347290  )
        16           N   tau(  16) = (   0.9877230   0.1340820   0.6144180  )
        17           N   tau(  17) = (   0.9871320   0.0080600   0.7563970  )
        18           N   tau(  18) = (   0.1402670   0.1170080   0.7739500  )
        19           N   tau(  19) = (   0.1142480   0.0095000   0.8501220  )
        20           N   tau(  20) = (   0.9929890   0.1307580   0.8630510  )
        21           N   tau(  21) = (   0.9878560   0.2840130   0.9827310  )
        22           N   tau(  22) = (   0.1364940   0.3947830   0.9904240  )
        23           N   tau(  23) = (   0.1304570   0.2507080   0.1322690  )
        24           N   tau(  24) = (   0.9919920   0.3675840   0.1186790  )
        25           N   tau(  25) = (   0.0080600   0.2583740   0.2587340  )
        26           N   tau(  26) = (   0.0996380   0.3556700   0.2345200  )
        27           N   tau(  27) = (   0.1151810   0.2752190   0.3988930  )
        28           N   tau(  28) = (   0.0081890   0.3848130   0.3866460  )
        29           N   tau(  29) = (   0.9927150   0.2418010   0.5101780  )
        30           N   tau(  30) = (   0.1398630   0.3549660   0.4951330  )
        31           N   tau(  31) = (   0.1421540   0.2520780   0.6226000  )
        32           N   tau(  32) = (   0.9926550   0.3965200   0.6395300  )
        33           N   tau(  33) = (   0.9878660   0.2272730   0.7428730  )
        34           N   tau(  34) = (   0.1370730   0.3813690   0.7268830  )
        35           N   tau(  35) = (   0.1170740   0.2420770   0.8878830  )
        36           N   tau(  36) = (   0.0087450   0.3859790   0.8994950  )
        37           N   tau(  37) = (   0.0034800   0.5210960   0.9901980  )
        38           N   tau(  38) = (   0.1069550   0.6135490   0.9818970  )
        39           N   tau(  39) = (   0.1194030   0.5059570   0.1301950  )
        40           N   tau(  40) = (   0.0222780   0.6403680   0.1373030  )
        41           N   tau(  41) = (   0.0129370   0.4866260   0.2564490  )
        42           N   tau(  42) = (   0.1132150   0.6411360   0.2568020  )
        43           N   tau(  43) = (   0.1484860   0.5015550   0.3913760  )
        44           N   tau(  44) = (   0.9948840   0.6194870   0.3819010  )
        45           N   tau(  45) = (   0.0097570   0.5147480   0.5086840  )
        46           N   tau(  46) = (   0.1339260   0.6220550   0.4785120  )
        47           N   tau(  47) = (   0.1361190   0.5113810   0.6427720  )
        48           N   tau(  48) = (   0.9915790   0.6096210   0.6306580  )
        49           N   tau(  49) = (   0.0052400   0.5087020   0.7627400  )
        50           N   tau(  50) = (   0.1126000   0.6104030   0.7511220  )
        51           N   tau(  51) = (   0.1150040   0.5194970   0.8826660  )
        52           N   tau(  52) = (   0.9851930   0.6192500   0.8966820  )
        53           N   tau(  53) = (   0.9813030   0.7650280   0.9879920  )
        54           N   tau(  54) = (   0.1004230   0.8705280   0.0220080  )
        55           N   tau(  55) = (   0.1072380   0.7632720   0.1394320  )
        56           N   tau(  56) = (   0.9895880   0.8978600   0.1363670  )
        57           N   tau(  57) = (   0.0020150   0.7713170   0.2581810  )
        58           N   tau(  58) = (   0.1199720   0.8759760   0.2359060  )
        59           N   tau(  59) = (   0.1110890   0.7440860   0.3556160  )
        60           N   tau(  60) = (   0.0095500   0.8628960   0.3706650  )
        61           N   tau(  61) = (   0.0125240   0.7431960   0.5173260  )
        62           N   tau(  62) = (   0.1104810   0.8563500   0.4735570  )
        63           N   tau(  63) = (   0.1342810   0.7570310   0.6457510  )
        64           N   tau(  64) = (   0.9796790   0.8644070   0.6320330  )
        65           N   tau(  65) = (   0.0047160   0.7276690   0.7375910  )
        66           N   tau(  66) = (   0.1426940   0.8870330   0.7373500  )
        67           N   tau(  67) = (   0.1401000   0.7543290   0.8583370  )
        68           N   tau(  68) = (   0.0137840   0.8806510   0.8639800  )
        69           N   tau(  69) = (   0.2651130   0.0123810   0.2594790  )
        70           N   tau(  70) = (   0.3651100   0.1341110   0.2543860  )
        71           N   tau(  71) = (   0.3663650   0.9748970   0.3543940  )
        72           N   tau(  72) = (   0.2449740   0.1092650   0.3786670  )
        73           N   tau(  73) = (   0.2578850   0.9871690   0.5119530  )
        74           N   tau(  74) = (   0.3858710   0.1341890   0.4915290  )
        75           N   tau(  75) = (   0.3586800   0.9938290   0.6562820  )
        76           N   tau(  76) = (   0.2746720   0.1306560   0.6197200  )
        77           N   tau(  77) = (   0.2603950   0.0133290   0.7610480  )
        78           N   tau(  78) = (   0.3616830   0.1160190   0.7554660  )
        79           N   tau(  79) = (   0.3689930   0.9973840   0.8620710  )
        80           N   tau(  80) = (   0.2569710   0.1271760   0.8847470  )
        81           N   tau(  81) = (   0.2645730   0.2587760   0.9925930  )
        82           N   tau(  82) = (   0.3938290   0.3595140   0.0175270  )
        83           N   tau(  83) = (   0.3788760   0.2705670   0.1371450  )
        84           N   tau(  84) = (   0.2575250   0.3614050   0.1316100  )
        85           N   tau(  85) = (   0.2638230   0.2613030   0.2320290  )
        86           N   tau(  86) = (   0.3604180   0.3813110   0.2422880  )
        87           N   tau(  87) = (   0.3855040   0.2540260   0.3868780  )
        88           N   tau(  88) = (   0.2419300   0.3676750   0.4034870  )
        89           N   tau(  89) = (   0.2437880   0.2608310   0.4880640  )
        90           N   tau(  90) = (   0.3506680   0.3782670   0.5169840  )
        91           N   tau(  91) = (   0.3670600   0.2585860   0.6349840  )
        92           N   tau(  92) = (   0.2297430   0.3604520   0.6013410  )
        93           N   tau(  93) = (   0.2682810   0.2663560   0.7596850  )
        94           N   tau(  94) = (   0.3569400   0.3505610   0.7589230  )
        95           N   tau(  95) = (   0.3959250   0.2632430   0.8595510  )
        96           N   tau(  96) = (   0.2677490   0.3579620   0.8854080  )
        97           N   tau(  97) = (   0.2648280   0.5271380   0.0073910  )
        98           N   tau(  98) = (   0.3635820   0.6302990   0.0045460  )
        99           N   tau(  99) = (   0.3515100   0.4966330   0.1192910  )
       100           N   tau( 100) = (   0.2592030   0.6396900   0.0973070  )
       101           N   tau( 101) = (   0.2580500   0.4911490   0.2703050  )
       102           N   tau( 102) = (   0.3683050   0.6224510   0.2698120  )
       103           N   tau( 103) = (   0.3793320   0.5088140   0.3877220  )
       104           N   tau( 104) = (   0.2660890   0.6338240   0.3652610  )
       105           N   tau( 105) = (   0.2559960   0.4880340   0.4854690  )
       106           N   tau( 106) = (   0.3813290   0.6172220   0.4733500  )
       107           N   tau( 107) = (   0.3825480   0.5149610   0.6342440  )
       108           N   tau( 108) = (   0.2373480   0.6452500   0.6103540  )
       109           N   tau( 109) = (   0.2583240   0.5223440   0.7440000  )
       110           N   tau( 110) = (   0.3792940   0.6269130   0.7442200  )
       111           N   tau( 111) = (   0.3706830   0.5135190   0.8941730  )
       112           N   tau( 112) = (   0.2385000   0.6414710   0.8845900  )
       113           N   tau( 113) = (   0.2653070   0.7377560   0.9822750  )
       114           N   tau( 114) = (   0.4046210   0.8879750   0.9844780  )
       115           N   tau( 115) = (   0.3683120   0.7463920   0.1349030  )
       116           N   tau( 116) = (   0.2709570   0.8876750   0.1437180  )
       117           N   tau( 117) = (   0.2534600   0.7614660   0.2387730  )
       118           N   tau( 118) = (   0.3539590   0.8921400   0.2659350  )
       119           N   tau( 119) = (   0.3613990   0.7355710   0.3887570  )
       120           N   tau( 120) = (   0.2717580   0.8696070   0.3725020  )
       121           N   tau( 121) = (   0.2435820   0.7109010   0.4897730  )
       122           N   tau( 122) = (   0.3696950   0.8804150   0.4921370  )
       123           N   tau( 123) = (   0.3638410   0.7669330   0.6380770  )
       124           N   tau( 124) = (   0.2678080   0.8814390   0.6342930  )
       125           N   tau( 125) = (   0.2323550   0.7637460   0.7428380  )
       126           N   tau( 126) = (   0.3641060   0.8878390   0.7557130  )
       127           N   tau( 127) = (   0.3670130   0.7606700   0.8962270  )
       128           N   tau( 128) = (   0.2483560   0.8947070   0.8616170  )
       129           N   tau( 129) = (   0.5076830   0.0137140   0.0187910  )
       130           N   tau( 130) = (   0.6175590   0.1180030   0.9874920  )
       131           N   tau( 131) = (   0.6366890   0.9803250   0.1357230  )
       132           N   tau( 132) = (   0.5022560   0.1167570   0.1300530  )
       133           N   tau( 133) = (   0.5058870   0.0124860   0.2718580  )
       134           N   tau( 134) = (   0.6358850   0.1371110   0.2636610  )
       135           N   tau( 135) = (   0.6268360   0.9739170   0.3905510  )
       136           N   tau( 136) = (   0.4849620   0.1367660   0.3673620  )
       137           N   tau( 137) = (   0.4875550   0.0144330   0.4836500  )
       138           N   tau( 138) = (   0.6235770   0.1035290   0.4779490  )
       139           N   tau( 139) = (   0.6098140   0.0267890   0.6353650  )
       140           N   tau( 140) = (   0.4873160   0.1355620   0.6101870  )
       141           N   tau( 141) = (   0.5024120   0.0088770   0.7295610  )
       142           N   tau( 142) = (   0.6138170   0.1447150   0.7574490  )
       143           N   tau( 143) = (   0.6044490   0.0116120   0.8569530  )
       144           N   tau( 144) = (   0.5133120   0.1419350   0.8596490  )
       145           N   tau( 145) = (   0.5054730   0.2637140   0.9830010  )
       146           N   tau( 146) = (   0.6404250   0.3611070   0.0088000  )
       147           N   tau( 147) = (   0.6385380   0.2280350   0.1463660  )
       148           N   tau( 148) = (   0.5032310   0.3648090   0.1122540  )
       149           N   tau( 149) = (   0.5239990   0.2654520   0.2343980  )
       150           N   tau( 150) = (   0.6457030   0.3608220   0.2602660  )
       151           N   tau( 151) = (   0.6420920   0.2565120   0.3802050  )
       152           N   tau( 152) = (   0.4793190   0.3665870   0.3686330  )
       153           N   tau( 153) = (   0.5241010   0.2768720   0.5172890  )
       154           N   tau( 154) = (   0.6122030   0.3600490   0.5105200  )
       155           N   tau( 155) = (   0.6393940   0.2570470   0.6429390  )
       156           N   tau( 156) = (   0.4849610   0.3587070   0.6001130  )
       157           N   tau( 157) = (   0.4902150   0.2366800   0.7359080  )
       158           N   tau( 158) = (   0.6046260   0.3739080   0.7272410  )
       159           N   tau( 159) = (   0.6152790   0.2617930   0.8914140  )
       160           N   tau( 160) = (   0.4894570   0.3822970   0.8602270  )
       161           N   tau( 161) = (   0.5080330   0.5135650   0.0068620  )
       162           N   tau( 162) = (   0.6047210   0.6150040   0.0079110  )
       163           N   tau( 163) = (   0.6322630   0.5134910   0.1555720  )
       164           N   tau( 164) = (   0.4980240   0.6261380   0.1146160  )
       165           N   tau( 165) = (   0.4891240   0.4946890   0.2384040  )
       166           N   tau( 166) = (   0.6091810   0.6195680   0.2672940  )
       167           N   tau( 167) = (   0.6452610   0.4764750   0.3797830  )
       168           N   tau( 168) = (   0.5082360   0.6342660   0.3618710  )
       169           N   tau( 169) = (   0.5102320   0.4843330   0.5049970  )
       170           N   tau( 170) = (   0.6309140   0.5989000   0.5074800  )
       171           N   tau( 171) = (   0.6292840   0.4929230   0.6329890  )
       172           N   tau( 172) = (   0.4869750   0.6393970   0.6147330  )
       173           N   tau( 173) = (   0.4841600   0.4955760   0.7632150  )
       174           N   tau( 174) = (   0.6148350   0.6171040   0.7601720  )
       175           N   tau( 175) = (   0.6323020   0.4755960   0.8946980  )
       176           N   tau( 176) = (   0.5146320   0.6192780   0.8689180  )
       177           N   tau( 177) = (   0.5204350   0.7370260   0.9924200  )
       178           N   tau( 178) = (   0.6169860   0.8599880   0.0023970  )
       179           N   tau( 179) = (   0.6278120   0.7575530   0.1375000  )
       180           N   tau( 180) = (   0.4846560   0.8680160   0.0975220  )
       181           N   tau( 181) = (   0.5189540   0.7481650   0.2380060  )
       182           N   tau( 182) = (   0.6352610   0.8978370   0.2280430  )
       183           N   tau( 183) = (   0.6500850   0.7555020   0.3623140  )
       184           N   tau( 184) = (   0.5210620   0.8614510   0.3963730  )
       185           N   tau( 185) = (   0.5177060   0.7275800   0.5072460  )
       186           N   tau( 186) = (   0.6209020   0.8872930   0.5032050  )
       187           N   tau( 187) = (   0.6331540   0.7606380   0.6357310  )
       188           N   tau( 188) = (   0.5098620   0.8872400   0.6226350  )
       189           N   tau( 189) = (   0.5153970   0.7350790   0.7534610  )
       190           N   tau( 190) = (   0.6142690   0.8691030   0.7697360  )
       191           N   tau( 191) = (   0.6326340   0.7389740   0.8723250  )
       192           N   tau( 192) = (   0.4812920   0.9008850   0.8872370  )
       193           N   tau( 193) = (   0.7635490   0.9821340   0.0107300  )
       194           N   tau( 194) = (   0.8681740   0.1415000   0.9894460  )
       195           N   tau( 195) = (   0.8640830   0.9854840   0.1179230  )
       196           N   tau( 196) = (   0.7128340   0.1358790   0.1327140  )
       197           N   tau( 197) = (   0.7753750   0.0179330   0.2408530  )
       198           N   tau( 198) = (   0.8839090   0.1176110   0.2538200  )
       199           N   tau( 199) = (   0.8505440   0.0181850   0.3691460  )
       200           N   tau( 200) = (   0.7616920   0.1204000   0.3819560  )
       201           N   tau( 201) = (   0.7645930   0.0178360   0.5148570  )
       202           N   tau( 202) = (   0.8882370   0.1195680   0.5126960  )
       203           N   tau( 203) = (   0.8907360   0.9895360   0.6239290  )
       204           N   tau( 204) = (   0.7640150   0.1078530   0.6394680  )
       205           N   tau( 205) = (   0.7351150   0.0123570   0.7417150  )
       206           N   tau( 206) = (   0.8706070   0.0993510   0.7468800  )
       207           N   tau( 207) = (   0.8511520   0.9922490   0.8767010  )
       208           N   tau( 208) = (   0.7372210   0.1096180   0.8600420  )
       209           N   tau( 209) = (   0.7387060   0.2645850   0.0162490  )
       210           N   tau( 210) = (   0.8810890   0.3858960   0.9938420  )
       211           N   tau( 211) = (   0.8640320   0.2651760   0.1307610  )
       212           N   tau( 212) = (   0.7469380   0.3844880   0.1311760  )
       213           N   tau( 213) = (   0.7550110   0.2453810   0.2342390  )
       214           N   tau( 214) = (   0.8630390   0.3789020   0.2605100  )
       215           N   tau( 215) = (   0.8637400   0.2431560   0.3666090  )
       216           N   tau( 216) = (   0.7645950   0.3605850   0.3809740  )
       217           N   tau( 217) = (   0.7461760   0.2711760   0.5120210  )
       218           N   tau( 218) = (   0.8932170   0.3570860   0.4891630  )
       219           N   tau( 219) = (   0.8597920   0.2346310   0.6199230  )
       220           N   tau( 220) = (   0.7629010   0.3592440   0.6130980  )
       221           N   tau( 221) = (   0.7558080   0.2668080   0.7381920  )
       222           N   tau( 222) = (   0.8614540   0.3697410   0.7510450  )
       223           N   tau( 223) = (   0.8621580   0.2419620   0.8910920  )
       224           N   tau( 224) = (   0.7297650   0.3899990   0.8688930  )
       225           N   tau( 225) = (   0.7348770   0.4901140   0.0119230  )
       226           N   tau( 226) = (   0.8648920   0.6215760   0.0111910  )
       227           N   tau( 227) = (   0.8710130   0.5053090   0.1378150  )
       228           N   tau( 228) = (   0.7694510   0.6496490   0.1364760  )
       229           N   tau( 229) = (   0.7306750   0.5043310   0.2276800  )
       230           N   tau( 230) = (   0.8837320   0.5926110   0.2193800  )
       231           N   tau( 231) = (   0.8615060   0.5060540   0.3624090  )
       232           N   tau( 232) = (   0.7430680   0.6095110   0.3938040  )
       233           N   tau( 233) = (   0.7614680   0.4902140   0.5180470  )
       234           N   tau( 234) = (   0.8701240   0.6180230   0.5061040  )
       235           N   tau( 235) = (   0.8861230   0.5162210   0.6315010  )
       236           N   tau( 236) = (   0.7246760   0.6200960   0.6358140  )
       237           N   tau( 237) = (   0.7331100   0.4918190   0.7505150  )
       238           N   tau( 238) = (   0.8908950   0.6427280   0.7723220  )
       239           N   tau( 239) = (   0.8495730   0.5075010   0.8822460  )
       240           N   tau( 240) = (   0.7586110   0.6034400   0.8806630  )
       241           N   tau( 241) = (   0.7669930   0.7706240   0.9926870  )
       242           N   tau( 242) = (   0.8874260   0.8470540   0.9890160  )
       243           N   tau( 243) = (   0.8515460   0.7611750   0.1171020  )
       244           N   tau( 244) = (   0.7588550   0.8852870   0.1148080  )
       245           N   tau( 245) = (   0.7210660   0.7409850   0.2331950  )
       246           N   tau( 246) = (   0.9028950   0.8616510   0.2399320  )
       247           N   tau( 247) = (   0.8686250   0.7315160   0.3918420  )
       248           N   tau( 248) = (   0.7555960   0.8641980   0.3645240  )
       249           N   tau( 249) = (   0.7193220   0.7263850   0.5087200  )
       250           N   tau( 250) = (   0.8779860   0.8784710   0.5064530  )
       251           N   tau( 251) = (   0.8551840   0.7590360   0.6273780  )
       252           N   tau( 252) = (   0.7420020   0.8898550   0.6347040  )
       253           N   tau( 253) = (   0.7595200   0.7449420   0.7447270  )
       254           N   tau( 254) = (   0.8629470   0.8832600   0.7621600  )
       255           N   tau( 255) = (   0.8571040   0.7282380   0.8510120  )
       256           N   tau( 256) = (   0.7649250   0.8672080   0.8826320  )

     number of k points=     4  Marzari-Vanderbilt smearing, width (Ry)=  0.0500
                       cart. coord. in units 2pi/alat
        k(    1) = (   0.2500000   0.2500000   0.2500000), wk =   0.5000000
        k(    2) = (  -0.2500000  -0.2500000   0.2500000), wk =   0.5000000
        k(    3) = (  -0.2500000   0.2500000  -0.2500000), wk =   0.5000000
        k(    4) = (   0.2500000  -0.2500000  -0.2500000), wk =   0.5000000

     Dense  grid:  1439361 G-vectors     FFT dimensions: ( 144, 144, 144)

     Smooth grid:   794839 G-vectors     FFT dimensions: ( 120, 120, 120)

     Largest allocated arrays     est. size (Mb)     dimensions
        Kohn-Sham Wavefunctions        21.93 Mb     (   3117,  461)
        NL pseudopotentials            97.41 Mb     (   3117, 2048)
        Each V/rho on FFT grid          1.58 Mb     ( 103680)
        Each G-vector array             0.34 Mb     (  44980)
        G-vector shells                 0.03 Mb     (   3845)
     Largest temporary arrays     est. size (Mb)     dimensions
        Auxiliary wavefunctions        87.70 Mb     (   3117, 1844)
        Each subspace H/S matrix       51.89 Mb     (1844,1844)
        Each <psi_i|beta_j> matrix     14.41 Mb     (   2048,  461)
        Arrays for rho mixing          12.66 Mb     ( 103680,   8)

     Check: negative/imaginary core charge=   -0.000006    0.000000

     Initial potential from superposition of free atoms

     starting charge  767.41368, renormalised to  768.00000
     Starting wfc are 1024 randomized atomic wfcs
     Checking if some PAW data can be deallocated... 

     total cpu time spent up to now is       85.3 secs

     Self-consistent Calculation

     iteration #  1     ecut=    35.00 Ry     beta=0.70
     Davidson diagonalization with overlap
     ethr =  1.00E-02,  avg # of iterations =  3.0

     total cpu time spent up to now is      250.2 secs

     total energy              =  -10103.31770912 Ry
     Harris-Foulkes estimate   =  -10105.51716314 Ry
     estimated scf accuracy    <       9.31966981 Ry

     iteration #  2     ecut=    35.00 Ry     beta=0.70
     Davidson diagonalization with overlap
     ethr =  1.21E-03,  avg # of iterations =  2.0

     total cpu time spent up to now is      352.2 secs

     total energy              =  -10102.97381390 Ry
     Harris-Foulkes estimate   =  -10103.99690775 Ry
     estimated scf accuracy    <       2.41003118 Ry

     iteration #  3     ecut=    35.00 Ry     beta=0.70
     Davidson diagonalization with overlap
     ethr =  3.14E-04,  avg # of iterations =  5.5

     total cpu time spent up to now is      578.1 secs

     total energy              =  -10103.72580722 Ry
     Harris-Foulkes estimate   =  -10103.83569729 Ry
     estimated scf accuracy    <       0.60741834 Ry

     iteration #  4     ecut=    35.00 Ry     beta=0.70
     Davidson diagonalization with overlap
     ethr =  7.91E-05,  avg # of iterations =  2.0

     total cpu time spent up to now is      681.3 secs

     total energy              =  -10103.69881530 Ry
     Harris-Foulkes estimate   =  -10103.75936520 Ry
     estimated scf accuracy    <       0.18240321 Ry

     iteration #  5     ecut=    35.00 Ry     beta=0.70
     Davidson diagonalization with overlap
     ethr =  2.38E-05,  avg # of iterations =  9.5

     total cpu time spent up to now is      953.2 secs

     total energy              =  -10103.74485774 Ry
     Harris-Foulkes estimate   =  -10103.75019091 Ry
     estimated scf accuracy    <       0.03770368 Ry

     iteration #  6     ecut=    35.00 Ry     beta=0.70
     Davidson diagonalization with overlap
     ethr =  4.91E-06,  avg # of iterations =  3.8

     total cpu time spent up to now is     1071.5 secs

     total energy              =  -10103.74309116 Ry
     Harris-Foulkes estimate   =  -10103.74696003 Ry
     estimated scf accuracy    <       0.01199266 Ry

     iteration #  7     ecut=    35.00 Ry     beta=0.70
     Davidson diagonalization with overlap
     ethr =  1.56E-06,  avg # of iterations =  7.0

     total cpu time spent up to now is     1305.0 secs

     total energy              =  -10103.74605551 Ry
     Harris-Foulkes estimate   =  -10103.74680995 Ry
     estimated scf accuracy    <       0.00428061 Ry

     iteration #  8     ecut=    35.00 Ry     beta=0.70
     Davidson diagonalization with overlap
     ethr =  5.57E-07,  avg # of iterations =  2.0

     total cpu time spent up to now is     1405.1 secs

     total energy              =  -10103.74617605 Ry
     Harris-Foulkes estimate   =  -10103.74633576 Ry
     estimated scf accuracy    <       0.00062056 Ry

     iteration #  9     ecut=    35.00 Ry     beta=0.70
     Davidson diagonalization with overlap
     ethr =  8.08E-08,  avg # of iterations =  4.2

     total cpu time spent up to now is     1607.8 secs

     total energy              =  -10103.74638206 Ry
     Harris-Foulkes estimate   =  -10103.74639897 Ry
     estimated scf accuracy    <       0.00019516 Ry

     iteration # 10     ecut=    35.00 Ry     beta=0.70
     Davidson diagonalization with overlap
     ethr =  2.54E-08,  avg # of iterations =  1.0

     total cpu time spent up to now is     1699.9 secs

     total energy              =  -10103.74636781 Ry
     Harris-Foulkes estimate   =  -10103.74638708 Ry
     estimated scf accuracy    <       0.00009373 Ry

     iteration # 11     ecut=    35.00 Ry     beta=0.70
     Davidson diagonalization with overlap
     ethr =  1.22E-08,  avg # of iterations =  3.0

     total cpu time spent up to now is     1821.0 secs

     total energy              =  -10103.74637830 Ry
     Harris-Foulkes estimate   =  -10103.74637830 Ry
     estimated scf accuracy    <       0.00000016 Ry

     iteration # 12     ecut=    35.00 Ry     beta=0.70
     Davidson diagonalization with overlap
     ethr =  2.08E-11,  avg # of iterations = 11.2

     total cpu time spent up to now is     2180.0 secs

     total energy              =  -10103.74638003 Ry
     Harris-Foulkes estimate   =  -10103.74638007 Ry
     estimated scf accuracy    <       0.00000066 Ry

     iteration # 13     ecut=    35.00 Ry     beta=0.70
     Davidson diagonalization with overlap
     ethr =  2.08E-11,  avg # of iterations =  2.0

     total cpu time spent up to now is     2279.9 secs

     total energy              =  -10103.74637997 Ry
     Harris-Foulkes estimate   =  -10103.74638003 Ry
     estimated scf accuracy    <       0.00000034 Ry

     iteration # 14     ecut=    35.00 Ry     beta=0.70
     Davidson diagonalization with overlap
     ethr =  2.08E-11,  avg # of iterations =  4.0

     total cpu time spent up to now is     2442.2 secs

     End of self-consistent calculation

          k = 0.2500 0.2500 0.2500 ( 99252 PWs)   bands (ev):

    -3.5967  -3.4187  -3.3582  -3.2213  -3.1201  -3.0596  -2.9780  -2.8463
    -2.7805  -2.7374  -2.6337  -2.6009  -2.5285  -2.4988  -2.4194  -2.3685
    -2.3148  -2.2261  -2.1749  -2.1094  -1.9812  -1.9073  -1.8871  -1.8444
    -1.7691  -1.7378  -1.6935  -1.6651  -1.5792  -1.5249  -1.4617  -1.4427
    -1.3926  -1.3553  -1.2841  -1.2699  -1.2079  -1.1715  -1.1212  -1.0857
    -0.9805  -0.9463  -0.8994  -0.8545  -0.8089  -0.7943  -0.7599  -0.6921
    -0.6673  -0.6311  -0.6066  -0.5444  -0.5005  -0.4605  -0.4200  -0.3846
    -0.3257  -0.2757  -0.2650  -0.2167  -0.1736  -0.1551  -0.1250  -0.0881
    -0.0529  -0.0217   0.0173   0.0619   0.1211   0.1493   0.1856   0.2224
     0.2599   0.2764   0.3131   0.3501   0.3705   0.4347   0.4632   0.4969
     0.5375   0.5867   0.6461   0.6733   0.7059   0.7646   0.7895   0.8139
     0.8460   0.8905   0.9186   0.9573   0.9833   1.0111   1.0396   1.0504
     1.0779   1.1139   1.1298   1.1753   1.2164   1.2451   1.2540   1.3057
     1.3265   1.3751   1.3999   1.4114   1.4292   1.4740   1.5000   1.5430
     1.5617   1.5931   1.6374   1.6616   1.7165   1.7311   1.7565   1.7758
     1.8076   1.8703   1.8939   1.9100   1.9386   1.9563   1.9773   2.0154
     2.0539   2.0769   2.0960   2.1359   2.1875   2.2374   2.2507   2.2733
     2.3082   2.3332   2.3459   2.4045   2.4151   2.4535   2.4719   2.5086
     2.5319   2.5475   2.5857   2.5975   2.6388   2.6508   2.6770   2.7098
     2.7380   2.7603   2.7982   2.8113   2.8348   2.8608   2.8724   2.8947
     2.9087   2.9320   2.9555   2.9731   3.0035   3.0343   3.0613   3.0871
     3.1173   3.1407   3.1620   3.1966   3.2155   3.2531   3.2709   3.2985
     3.3321   3.3451   3.3808   3.4061   3.4228   3.4445   3.4682   3.4950
     3.5217   3.5539   3.5664   3.5994   3.6117   3.6435   3.6716   3.7135
     3.7219   3.7556   3.7853   3.8082   3.8278   3.8402   3.8662   3.8818
     3.9300   3.9477   3.9776   3.9980   4.0165   4.0358   4.0920   4.1063
     4.1115   4.1484   4.1622   4.1978   4.2199   4.2490   4.2536   4.2759
     4.2981   4.3209   4.3473   4.3536   4.3825   4.3992   4.4223   4.4465
     4.4821   4.5026   4.5276   4.5406   4.5547   4.5761   4.5928   4.6132
     4.6257   4.6620   4.6816   4.7130   4.7299   4.7650   4.7858   4.8074
     4.8381   4.8504   4.8646   4.8825   4.9137   4.9248   4.9538   4.9792
     5.0118   5.0286   5.0394   5.0607   5.0829   5.1076   5.1250   5.1396
     5.1801   5.2028   5.2163   5.2472   5.2618   5.2777   5.2894   5.3122
     5.3283   5.3410   5.3679   5.3834   5.4040   5.4275   5.4466   5.4648
     5.4800   5.4917   5.5372   5.5473   5.5646   5.5759   5.5927   5.6198
     5.6346   5.6606   5.6707   5.7047   5.7333   5.7433   5.7993   5.8196
     5.8407   5.8524   5.8846   5.9069   5.9227   5.9553   5.9657   5.9859
     6.0232   6.0378   6.0538   6.0777   6.0862   6.1237   6.1296   6.1619
     6.1804   6.2254   6.2445   6.2768   6.3059   6.3348   6.3522   6.3729
     6.3782   6.4055   6.4254   6.4497   6.4801   6.5271   6.5346   6.5415
     6.5664   6.5936   6.6172   6.6396   6.6547   6.6816   6.6985   6.7088
     6.7281   6.7449   6.7588   6.7772   6.7975   6.8156   6.8276   6.8500
     6.8661   6.8919   6.9124   6.9321   6.9461   6.9548   6.9693   6.9983
     7.0080   7.0299   7.0419   7.0802   7.1069   7.1238   7.1365   7.1543
     7.1685   7.1910   7.2000   7.2351   7.2433   7.2638   7.2911   7.3181
     7.3257   7.3362   7.3665   7.3757   7.3967   7.4414   7.4469   7.4605
     7.4814   7.5122   7.5306   7.5491   7.5722   7.5942   7.6152   7.6244
     7.6308   7.6586   7.6861   7.7134   7.7264   7.7361   7.7717   7.7940
     7.8021   7.8230   7.8424   7.8623   7.8910   7.9132   7.9205   7.9337
     7.9559   7.9775   8.0193   8.0299   8.0501   8.0645   8.0798   8.1041
     8.1205   8.1395   8.1740   8.1830   8.2033   8.2118   8.2395   8.2682
     8.2756   8.2996   8.3191   8.3353   8.3516   8.3607   8.3831   8.4124
     8.4385   8.4458   8.4601   8.4745   8.4915   8.5091   8.5247   8.5422
     8.5644   8.5715   8.5813   8.6035   8.6167   8.6402   8.6676   8.6934
     8.7037   8.7178   8.7378   8.7601   8.7743   8.7821   8.8224   8.8315
     8.8486   8.8953   8.9090   8.9255   8.9407   8.9683   8.9862   8.9921
     9.0271   9.0473   9.0601   9.0734   9.0907   9.1078   9.1332   9.1466
     9.1581   9.1908   9.2117   9.2256   9.2398

          k =-0.2500-0.2500 0.2500 ( 99252 PWs)   bands (ev):

    -3.5942  -3.4379  -3.3423  -3.1970  -3.1370  -3.0627  -2.9826  -2.8758
    -2.7644  -2.7120  -2.6439  -2.5839  -2.5698  -2.4891  -2.4091  -2.3493
    -2.3067  -2.2306  -2.1521  -2.1207  -2.0167  -1.9673  -1.8737  -1.8292
    -1.7512  -1.7152  -1.6751  -1.6538  -1.5884  -1.5246  -1.4896  -1.4464
    -1.4056  -1.3794  -1.3343  -1.2454  -1.2023  -1.1166  -1.0993  -1.0427
    -0.9890  -0.9528  -0.8826  -0.8643  -0.8006  -0.7872  -0.7353  -0.7084
    -0.6670  -0.6497  -0.6022  -0.5625  -0.5268  -0.4790  -0.4467  -0.3997
    -0.3362  -0.2834  -0.2741  -0.2453  -0.1838  -0.1464  -0.1250  -0.0631
    -0.0340   0.0020   0.0277   0.0768   0.1107   0.1419   0.1715   0.2147
     0.2623   0.3253   0.3491   0.3638   0.3831   0.4345   0.4824   0.5091
     0.5449   0.5913   0.6117   0.6725   0.6906   0.7328   0.7975   0.8194
     0.8574   0.8813   0.9028   0.9387   0.9847   1.0115   1.0321   1.0662
     1.0913   1.1186   1.1473   1.1752   1.1926   1.2219   1.2593   1.2743
     1.3270   1.3414   1.3663   1.4071   1.4380   1.4672   1.5170   1.5430
     1.5637   1.6176   1.6330   1.6474   1.7043   1.7329   1.7646   1.7934
     1.8235   1.8590   1.8831   1.9271   1.9388   1.9760   1.9934   2.0149
     2.0562   2.1062   2.1183   2.1341   2.1750   2.2032   2.2318   2.2667
     2.3053   2.3467   2.3835   2.4231   2.4493   2.4682   2.4787   2.5145
     2.5246   2.5657   2.5726   2.6066   2.6226   2.6549   2.6749   2.7075
     2.7177   2.7411   2.7701   2.7939   2.8079   2.8347   2.8698   2.8914
     2.9175   2.9324   2.9674   3.0033   3.0264   3.0481   3.0762   3.0918
     3.1085   3.1265   3.1518   3.1816   3.1923   3.2431   3.2694   3.2912
     3.3163   3.3387   3.3572   3.3838   3.4243   3.4450   3.4779   3.4975
     3.5481   3.5597   3.5782   3.6093   3.6345   3.6681   3.6919   3.7085
     3.7380   3.7525   3.7767   3.7895   3.8290   3.8408   3.8580   3.8851
     3.9318   3.9462   3.9785   3.9982   4.0214   4.0409   4.0827   4.0905
     4.1332   4.1486   4.1674   4.1832   4.2078   4.2365   4.2628   4.2821
     4.3087   4.3164   4.3511   4.3592   4.3697   4.4048   4.4225   4.4412
     4.4585   4.4844   4.5080   4.5623   4.5692   4.5861   4.6057   4.6139
     4.6429   4.6545   4.6759   4.7108   4.7255   4.7522   4.7776   4.7932
     4.8198   4.8420   4.8582   4.8824   4.9128   4.9441   4.9617   4.9807
     5.0027   5.0248   5.0389   5.0758   5.0887   5.1130   5.1256   5.1502
     5.1697   5.2059   5.2267   5.2429   5.2546   5.2684   5.2923   5.3123
     5.3236   5.3615   5.3727   5.3916   5.4060   5.4241   5.4526   5.4697
     5.4888   5.5117   5.5429   5.5497   5.5630   5.5772   5.6165   5.6328
     5.6463   5.6814   5.7058   5.7155   5.7370   5.7553   5.7610   5.8141
     5.8220   5.8550   5.8647   5.8893   5.9116   5.9194   5.9570   5.9717
     6.0120   6.0333   6.0467   6.0784   6.1021   6.1201   6.1465   6.1659
     6.1917   6.2211   6.2442   6.2658   6.2869   6.3235   6.3503   6.3667
     6.3831   6.4072   6.4463   6.4669   6.4752   6.5057   6.5232   6.5438
     6.5518   6.5812   6.6106   6.6300   6.6419   6.6579   6.6725   6.6976
     6.7279   6.7434   6.7618   6.7798   6.7901   6.8003   6.8197   6.8369
     6.8696   6.9052   6.9151   6.9417   6.9554   6.9782   6.9881   7.0019
     7.0268   7.0438   7.0586   7.0918   7.1154   7.1260   7.1491   7.1670
     7.1854   7.2086   7.2198   7.2307   7.2599   7.2725   7.2929   7.3037
     7.3442   7.3543   7.3798   7.4017   7.4068   7.4210   7.4426   7.4568
     7.4713   7.4957   7.5080   7.5372   7.5572   7.5840   7.5985   7.6086
     7.6231   7.6605   7.6676   7.6971   7.7137   7.7414   7.7512   7.7813
     7.8120   7.8263   7.8415   7.8608   7.8878   7.8977   7.9206   7.9345
     7.9720   7.9901   8.0176   8.0381   8.0554   8.0647   8.1023   8.1202
     8.1375   8.1412   8.1573   8.1942   8.2094   8.2201   8.2480   8.2638
     8.2789   8.3091   8.3200   8.3376   8.3507   8.3778   8.3923   8.3975
     8.4266   8.4451   8.4542   8.4605   8.4835   8.5064   8.5268   8.5304
     8.5665   8.5860   8.5943   8.6175   8.6278   8.6471   8.6577   8.6896
     8.6937   8.7058   8.7343   8.7472   8.7613   8.7859   8.8020   8.8217
     8.8504   8.8744   8.8985   8.9089   8.9388   8.9586   8.9824   9.0076
     9.0188   9.0439   9.0679   9.0726   9.1055   9.1180   9.1261   9.1420
     9.1800   9.1947   9.2065   9.2169   9.2434

          k =-0.2500 0.2500-0.2500 ( 99252 PWs)   bands (ev):

    -3.5921  -3.4547  -3.2974  -3.2332  -3.1494  -3.0537  -2.9720  -2.8325
    -2.8004  -2.7372  -2.6413  -2.5992  -2.5734  -2.4598  -2.3939  -2.3314
    -2.3160  -2.2498  -2.1622  -2.0684  -2.0342  -1.9476  -1.9298  -1.8452
    -1.7563  -1.7147  -1.6953  -1.6287  -1.5949  -1.5005  -1.4844  -1.4491
    -1.4181  -1.3618  -1.2837  -1.2250  -1.2006  -1.1669  -1.1039  -1.0694
    -0.9823  -0.9331  -0.8864  -0.8601  -0.8509  -0.8039  -0.7544  -0.6988
    -0.6713  -0.6409  -0.5946  -0.5329  -0.5007  -0.4536  -0.4406  -0.4261
    -0.3904  -0.2921  -0.2379  -0.1828  -0.1708  -0.1324  -0.1028  -0.0622
    -0.0470   0.0140   0.0330   0.0710   0.1078   0.1252   0.1593   0.1890
     0.2324   0.2633   0.2997   0.3524   0.4009   0.4430   0.4761   0.5234
     0.5391   0.5975   0.6639   0.6776   0.7095   0.7204   0.7793   0.8197
     0.8287   0.8650   0.9117   0.9587   0.9828   1.0153   1.0375   1.0744
     1.0864   1.1185   1.1531   1.1880   1.2168   1.2333   1.2807   1.2969
     1.3116   1.3357   1.3791   1.4335   1.4626   1.4817   1.4888   1.5252
     1.5614   1.5984   1.6468   1.6541   1.6853   1.7465   1.7578   1.7879
     1.8218   1.8627   1.9003   1.9264   1.9365   1.9794   2.0030   2.0215
     2.0605   2.0817   2.0919   2.1462   2.1828   2.1983   2.2175   2.2734
     2.3036   2.3269   2.3574   2.3834   2.4261   2.4379   2.4611   2.5027
     2.5309   2.5530   2.5786   2.5983   2.6244   2.6421   2.6681   2.7057
     2.7166   2.7419   2.7736   2.7872   2.8020   2.8254   2.8626   2.8908
     2.9181   2.9673   2.9739   3.0024   3.0107   3.0561   3.0633   3.0924
     3.1180   3.1498   3.1824   3.2044   3.2183   3.2467   3.2868   3.3190
     3.3431   3.3614   3.3863   3.4177   3.4408   3.4660   3.4901   3.5143
     3.5293   3.5461   3.5733   3.6086   3.6251   3.6515   3.6869   3.6981
     3.7155   3.7522   3.7575   3.8029   3.8393   3.8652   3.8824   3.9101
     3.9270   3.9482   3.9704   4.0039   4.0366   4.0536   4.0669   4.1027
     4.1097   4.1410   4.1625   4.1879   4.1971   4.2183   4.2371   4.2580
     4.2780   4.2989   4.3439   4.3482   4.3700   4.3899   4.3986   4.4556
     4.4745   4.4949   4.5023   4.5271   4.5420   4.5794   4.5929   4.6205
     4.6341   4.6490   4.6696   4.7075   4.7294   4.7418   4.7767   4.8004
     4.8238   4.8501   4.8681   4.8920   4.9151   4.9411   4.9651   4.9835
     5.0040   5.0283   5.0520   5.0645   5.0891   5.1058   5.1281   5.1408
     5.1587   5.1854   5.2123   5.2400   5.2637   5.2732   5.2978   5.3036
     5.3302   5.3381   5.3597   5.3843   5.4098   5.4285   5.4493   5.4626
     5.4901   5.5170   5.5402   5.5609   5.5786   5.5841   5.6039   5.6411
     5.6531   5.6711   5.6901   5.7098   5.7424   5.7727   5.7827   5.8135
     5.8293   5.8622   5.8732   5.9020   5.9330   5.9399   5.9619   5.9832
     5.9969   6.0411   6.0650   6.0883   6.1071   6.1174   6.1685   6.1829
     6.2152   6.2303   6.2515   6.2828   6.3108   6.3314   6.3541   6.3734
     6.3905   6.3994   6.4280   6.4490   6.4855   6.5022   6.5189   6.5570
     6.5901   6.5950   6.6092   6.6239   6.6458   6.6605   6.6871   6.7154
     6.7183   6.7337   6.7609   6.7742   6.8033   6.8112   6.8320   6.8510
     6.8758   6.8906   6.9118   6.9185   6.9385   6.9719   6.9778   7.0026
     7.0189   7.0303   7.0524   7.0708   7.0842   7.1106   7.1229   7.1462
     7.1726   7.1859   7.2147   7.2347   7.2456   7.2594   7.2809   7.2929
     7.3159   7.3284   7.3490   7.3693   7.3855   7.4248   7.4436   7.4495
     7.4880   7.5072   7.5271   7.5491   7.5627   7.5790   7.6035   7.6247
     7.6492   7.6593   7.6788   7.6874   7.7362   7.7472   7.7664   7.7792
     7.8031   7.8209   7.8467   7.8613   7.8805   7.8997   7.9150   7.9339
     7.9577   7.9728   7.9895   8.0041   8.0346   8.0568   8.1014   8.1233
     8.1323   8.1604   8.1749   8.1894   8.2098   8.2368   8.2608   8.2700
     8.2868   8.3020   8.3240   8.3336   8.3531   8.3715   8.3882   8.3990
     8.4093   8.4432   8.4477   8.4657   8.4948   8.5088   8.5219   8.5371
     8.5588   8.5825   8.6039   8.6347   8.6380   8.6645   8.6955   8.7018
     8.7133   8.7340   8.7464   8.7574   8.7718   8.7946   8.8218   8.8419
     8.8659   8.8726   8.8910   8.9140   8.9394   8.9551   8.9682   9.0035
     9.0077   9.0371   9.0590   9.0829   9.0902   9.1083   9.1236   9.1618
     9.1771   9.1869   9.2017   9.2112   9.2476

          k = 0.2500-0.2500-0.2500 ( 99252 PWs)   bands (ev):

    -3.5989  -3.4255  -3.3145  -3.2584  -3.1382  -3.0449  -2.9763  -2.8584
    -2.7795  -2.7314  -2.6571  -2.5724  -2.5334  -2.4524  -2.4060  -2.3390
    -2.3085  -2.2570  -2.2036  -2.1378  -2.0289  -1.9502  -1.9053  -1.8292
    -1.7707  -1.7324  -1.6532  -1.5953  -1.5495  -1.5197  -1.4780  -1.4351
    -1.4102  -1.3816  -1.3040  -1.2583  -1.1748  -1.1615  -1.0930  -1.0418
    -1.0135  -0.9266  -0.9136  -0.8880  -0.8363  -0.7801  -0.7679  -0.7298
    -0.6746  -0.6206  -0.5874  -0.5496  -0.5017  -0.4639  -0.4365  -0.3922
    -0.3773  -0.2947  -0.2594  -0.2446  -0.1963  -0.1498  -0.1180  -0.0818
    -0.0315   0.0066   0.0512   0.0822   0.1257   0.1500   0.1784   0.2245
     0.2437   0.3140   0.3422   0.3709   0.3796   0.4265   0.4603   0.5224
     0.5486   0.5981   0.6368   0.6783   0.7125   0.7411   0.7772   0.8131
     0.8380   0.8740   0.8979   0.9443   0.9635   1.0245   1.0430   1.0831
     1.0963   1.1223   1.1361   1.1747   1.1888   1.2255   1.2606   1.2788
     1.3095   1.3374   1.3829   1.4217   1.4595   1.5065   1.5154   1.5331
     1.5475   1.5732   1.6216   1.6662   1.7030   1.7202   1.7671   1.7858
     1.8199   1.8490   1.8586   1.9123   1.9378   1.9769   2.0072   2.0222
     2.0562   2.0815   2.1271   2.1557   2.1856   2.2080   2.2323   2.2640
     2.2801   2.3033   2.3652   2.3867   2.4111   2.4409   2.4827   2.5024
     2.5254   2.5676   2.5892   2.6257   2.6523   2.6695   2.6910   2.7242
     2.7429   2.7475   2.7639   2.7982   2.8239   2.8405   2.8637   2.8818
     2.9174   2.9371   2.9679   2.9948   3.0298   3.0605   3.0945   3.1236
     3.1556   3.1624   3.1850   3.2045   3.2269   3.2618   3.2753   3.2908
     3.3261   3.3460   3.3722   3.3998   3.4194   3.4609   3.4704   3.4834
     3.5074   3.5232   3.5531   3.5648   3.5971   3.6235   3.6625   3.7039
     3.7318   3.7563   3.7785   3.8095   3.8378   3.8596   3.8762   3.9078
     3.9395   3.9519   3.9746   3.9887   4.0170   4.0387   4.0613   4.0859
     4.1172   4.1303   4.1664   4.1973   4.2187   4.2316   4.2519   4.2663
     4.2787   4.2896   4.3356   4.3544   4.3748   4.3928   4.4281   4.4429
     4.4547   4.4756   4.5053   4.5305   4.5534   4.5733   4.5899   4.6129
     4.6365   4.6443   4.6693   4.7030   4.7448   4.7621   4.7762   4.7994
     4.8336   4.8436   4.8876   4.9070   4.9265   4.9458   4.9670   4.9993
     5.0168   5.0312   5.0518   5.0770   5.0839   5.1058   5.1436   5.1540
     5.1773   5.1881   5.2104   5.2288   5.2478   5.2671   5.2817   5.3088
     5.3234   5.3424   5.3597   5.3841   5.4033   5.4213   5.4376   5.4541
     5.4817   5.4945   5.5248   5.5437   5.5688   5.5912   5.6120   5.6467
     5.6545   5.6719   5.6966   5.7238   5.7604   5.7884   5.8131   5.8391
     5.8560   5.8844   5.8962   5.9194   5.9375   5.9534   5.9836   6.0040
     6.0231   6.0532   6.0597   6.0898   6.1151   6.1308   6.1555   6.1778
     6.1938   6.2204   6.2259   6.2734   6.3011   6.3169   6.3364   6.3684
     6.3965   6.4093   6.4231   6.4452   6.4903   6.5037   6.5228   6.5364
     6.5536   6.5810   6.5970   6.6054   6.6283   6.6492   6.6601   6.7037
     6.7157   6.7357   6.7468   6.7562   6.7730   6.7975   6.8361   6.8490
     6.8663   6.8765   6.8965   6.9072   6.9264   6.9471   6.9605   6.9909
     7.0086   7.0240   7.0572   7.0691   7.0982   7.1073   7.1409   7.1436
     7.1716   7.1867   7.2054   7.2166   7.2382   7.2668   7.2886   7.3098
     7.3260   7.3453   7.3683   7.3809   7.4040   7.4183   7.4477   7.4690
     7.4945   7.5006   7.5327   7.5446   7.5584   7.5841   7.5991   7.6179
     7.6529   7.6704   7.6812   7.7029   7.7357   7.7644   7.7770   7.7876
     7.8038   7.8270   7.8391   7.8720   7.8960   7.9103   7.9315   7.9534
     7.9728   7.9932   8.0035   8.0174   8.0484   8.0848   8.0904   8.1077
     8.1348   8.1480   8.1622   8.1926   8.2016   8.2123   8.2442   8.2599
     8.2797   8.2973   8.3215   8.3368   8.3541   8.3783   8.3932   8.4153
     8.4311   8.4444   8.4568   8.4692   8.4815   8.5011   8.5232   8.5440
     8.5605   8.5730   8.5889   8.6158   8.6455   8.6681   8.6778   8.6845
     8.7125   8.7284   8.7484   8.7724   8.7912   8.8025   8.8218   8.8307
     8.8637   8.8751   8.8881   8.9220   8.9266   8.9431   8.9850   8.9995
     9.0186   9.0314   9.0593   9.0674   9.0943   9.1153   9.1523   9.1584
     9.1770   9.1894   9.2095   9.2232   9.2525

     the Fermi energy is     7.7924 ev

!    total energy              =  -10103.74638000 Ry
     Harris-Foulkes estimate   =  -10103.74638002 Ry
     estimated scf accuracy    <       0.00000001 Ry

     total all-electron energy =   -124316.298518 Ry

     The total energy is the sum of the following terms:

     one-electron contribution =     754.32232287 Ry
     hartree contribution      =      30.91158096 Ry
     xc contribution           =    -783.62404626 Ry
     ewald contribution        =   -1336.24773164 Ry
     one-center paw contrib.   =   -8769.10151422 Ry
     smearing contrib. (-TS)   =      -0.00699171 Ry

     convergence has been achieved in  14 iterations

     Forces acting on atoms (Ry/au):

     atom    1 type  1   force =    -0.01211959    0.05088888   -0.01499803
     atom    2 type  1   force =    -0.00568984   -0.00369560    0.00584470
     atom    3 type  1   force =     0.04028738   -0.09019907   -0.05681389
     atom    4 type  1   force =    -0.04145126    0.04284002   -0.01517177
     atom    5 type  1   force =    -0.02981827    0.02834847    0.08154700
     atom    6 type  1   force =    -0.02336824   -0.03617252    0.01612751
     atom    7 type  1   force =    -0.01710494    0.06503376   -0.05782715
     atom    8 type  1   force =    -0.08253471    0.00473281    0.09566035
     atom    9 type  1   force =    -0.03211431    0.10097063    0.10338258
     atom   10 type  1   force =     0.00716085    0.06520611    0.08627835
     atom   11 type  1   force =    -0.00711966   -0.00712237    0.01069837
     atom   12 type  1   force =     0.02015815    0.01330245    0.00694110
     atom   13 type  1   force =     0.06307031    0.01923597   -0.00802046
     atom   14 type  1   force =    -0.02614588   -0.00522332    0.03281192
     atom   15 type  1   force =    -0.01717056    0.07606429   -0.08423856
     atom   16 type  1   force =     0.10190314   -0.06391909    0.08503178
     atom   17 type  1   force =     0.03999598   -0.04741832   -0.02559828
     atom   18 type  1   force =    -0.00133597    0.15900260   -0.13942384
     atom   19 type  1   force =    -0.00138164   -0.12220297    0.13226125
     atom   20 type  1   force =    -0.00853269   -0.01748145    0.06056159
     atom   21 type  1   force =     0.03437061   -0.19767125    0.11485252
     atom   22 type  1   force =     0.02854709   -0.01151523    0.04463415
     atom   23 type  1   force =    -0.01110328   -0.03577530   -0.07068102
     atom   24 type  1   force =     0.00130703    0.03226240    0.00500591
     atom   25 type  1   force =    -0.11296023   -0.12378840    0.02395777
     atom   26 type  1   force =     0.14273381    0.13576866    0.03600889
     atom   27 type  1   force =    -0.04991983   -0.20839133   -0.21521260
     atom   28 type  1   force =    -0.01141000    0.02971763   -0.01710811
     atom   29 type  1   force =     0.04885357    0.02638348   -0.03676727
     atom   30 type  1   force =    -0.21320964    0.21862850    0.17583103
     atom   31 type  1   force =    -0.08697332   -0.11312560    0.03549606
     atom   32 type  1   force =     0.01282181   -0.04361803   -0.01591037
     atom   33 type  1   force =     0.01241806    0.06357712   -0.00724689
     atom   34 type  1   force =    -0.01763333   -0.02302292    0.07410093
     atom   35 type  1   force =     0.02091661    0.03689427   -0.03164654
     atom   36 type  1   force =     0.01386595    0.11431506   -0.17225430
     atom   37 type  1   force =    -0.09892031   -0.17053229    0.15075484
     atom   38 type  1   force =     0.12364555    0.18598391    0.14428340
     atom   39 type  1   force =     0.03234514   -0.01371389   -0.01176177
     atom   40 type  1   force =    -0.07953911   -0.03991262   -0.06168944
     atom   41 type  1   force =    -0.02298966    0.03341269    0.00636023
     atom   42 type  1   force =     0.05408471   -0.09229265   -0.01812088
     atom   43 type  1   force =    -0.09604203   -0.03027713   -0.09665298
     atom   44 type  1   force =    -0.00601867    0.00000882   -0.02251618
     atom   45 type  1   force =     0.00300661   -0.05403758   -0.02099583
     atom   46 type  1   force =    -0.07399819   -0.01997858    0.03822723
     atom   47 type  1   force =    -0.01019517   -0.02258873   -0.10117422
     atom   48 type  1   force =     0.07269385    0.09273962   -0.00197989
     atom   49 type  1   force =    -0.06259247   -0.06252426    0.01772488
     atom   50 type  1   force =     0.06020859    0.09449378    0.03228831
     atom   51 type  1   force =     0.06515765   -0.11784120   -0.10508134
     atom   52 type  1   force =    -0.04369917    0.11622146   -0.11674484
     atom   53 type  1   force =     0.21833147   -0.22369545    0.00982972
     atom   54 type  1   force =     0.06885253    0.00846805   -0.03495662
     atom   55 type  1   force =     0.05777713   -0.01883474   -0.06741452
     atom   56 type  1   force =     0.05974287   -0.07118311   -0.15432028
     atom   57 type  1   force =     0.00918736   -0.16635193   -0.05477777
     atom   58 type  1   force =     0.07910510    0.03333883    0.03598459
     atom   59 type  1   force =     0.07503600    0.03245373    0.09891842
     atom   60 type  1   force =    -0.08494903    0.07064526    0.01561485
     atom   61 type  1   force =    -0.03617887   -0.02939348   -0.00224540
     atom   62 type  1   force =     0.10061752    0.03881321    0.08364371
     atom   63 type  1   force =    -0.10779979    0.00391948   -0.12410604
     atom   64 type  1   force =     0.06695866   -0.01189721    0.02247762
     atom   65 type  1   force =     0.01984878    0.09273729    0.02052352
     atom   66 type  1   force =    -0.04963955   -0.02092980    0.07178664
     atom   67 type  1   force =    -0.09034303    0.03053348    0.05383848
     atom   68 type  1   force =    -0.01268233   -0.03208427   -0.00705562
     atom   69 type  1   force =    -0.10504555    0.01859426   -0.09647114
     atom   70 type  1   force =     0.03215405    0.01047057   -0.01224280
     atom   71 type  1   force =     0.14804311    0.28043317    0.29046258
     atom   72 type  1   force =     0.02243977    0.04295089    0.01146494
     atom   73 type  1   force =    -0.03566622    0.04272636   -0.01528756
     atom   74 type  1   force =    -0.05899398    0.00297707    0.01122042
     atom   75 type  1   force =     0.10203326    0.07310523   -0.13711514
     atom   76 type  1   force =    -0.05523031   -0.00946024   -0.01378412
     atom   77 type  1   force =    -0.14359431   -0.02367227   -0.01665254
     atom   78 type  1   force =     0.08179792    0.09829216    0.00525506
     atom   79 type  1   force =     0.04923627    0.07156443    0.05874613
     atom   80 type  1   force =     0.01265261    0.01888213    0.01648874
     atom   81 type  1   force =    -0.01736320   -0.05064935    0.04730328
     atom   82 type  1   force =    -0.08750031    0.08355959   -0.10033250
     atom   83 type  1   force =     0.07214349   -0.11185861   -0.01822610
     atom   84 type  1   force =    -0.09006659    0.10537152   -0.10523350
     atom   85 type  1   force =    -0.07167669   -0.08683566    0.13752823
     atom   86 type  1   force =     0.07897268    0.02290593    0.07339683
     atom   87 type  1   force =    -0.07303033   -0.00353306   -0.01682202
     atom   88 type  1   force =     0.10264729    0.06506481   -0.25013530
     atom   89 type  1   force =     0.09825066   -0.23871716    0.05513869
     atom   90 type  1   force =     0.11382537   -0.01004712   -0.02238235
     atom   91 type  1   force =    -0.00407061   -0.02293535   -0.05221546
     atom   92 type  1   force =     0.10595791    0.11683236    0.13006107
     atom   93 type  1   force =    -0.27767096   -0.25327531   -0.01802430
     atom   94 type  1   force =     0.21793549    0.34143852   -0.09520935
     atom   95 type  1   force =    -0.00932252   -0.13062419    0.11862489
     atom   96 type  1   force =    -0.04083669    0.10403467   -0.00517150
     atom   97 type  1   force =    -0.14256511   -0.13516780   -0.08383193
     atom   98 type  1   force =     0.19953638    0.02193441   -0.05371417
     atom   99 type  1   force =     0.07585559    0.00287580    0.06776547
     atom  100 type  1   force =    -0.12888963    0.02310715    0.17058799
     atom  101 type  1   force =    -0.04701178    0.02528126   -0.02254404
     atom  102 type  1   force =     0.07775129    0.00242760   -0.12228065
     atom  103 type  1   force =     0.03771381   -0.12655856   -0.08280044
     atom  104 type  1   force =    -0.17265324   -0.08629383   -0.01450096
     atom  105 type  1   force =     0.01129843    0.10624714    0.11938752
     atom  106 type  1   force =     0.03528653    0.03181716    0.15932325
     atom  107 type  1   force =    -0.01315585   -0.04341823   -0.04609717
     atom  108 type  1   force =     0.03219886   -0.09389651    0.11826076
     atom  109 type  1   force =    -0.00111947   -0.02720817    0.03506180
     atom  110 type  1   force =    -0.00306935    0.05073964    0.03857540
     atom  111 type  1   force =     0.01654792   -0.02796791   -0.04536291
     atom  112 type  1   force =     0.01976917   -0.11190408   -0.10999268
     atom  113 type  1   force =    -0.14659363    0.15406505    0.14351920
     atom  114 type  1   force =    -0.25880839   -0.03003401    0.14495960
     atom  115 type  1   force =     0.05282133    0.01620163   -0.01528950
     atom  116 type  1   force =    -0.05674808    0.01162688   -0.09309365
     atom  117 type  1   force =    -0.03466854   -0.03637258    0.03792384
     atom  118 type  1   force =     0.14653072   -0.23232578   -0.29396784
     atom  119 type  1   force =     0.10293104    0.13803408   -0.03565858
     atom  120 type  1   force =    -0.19330125   -0.07764467    0.09908619
     atom  121 type  1   force =     0.04487260    0.18661130   -0.03469214
     atom  122 type  1   force =     0.05988080   -0.03828932    0.04341301
     atom  123 type  1   force =     0.05806787   -0.04835134   -0.02323973
     atom  124 type  1   force =    -0.09229169   -0.01265482   -0.05573974
     atom  125 type  1   force =     0.16204249   -0.05127750    0.06182947
     atom  126 type  1   force =     0.06728659   -0.10595588    0.02951401
     atom  127 type  1   force =     0.12536010    0.00454480   -0.13706685
     atom  128 type  1   force =    -0.04088215   -0.08273531    0.02978535
     atom  129 type  1   force =     0.06973645   -0.05549824   -0.08223823
     atom  130 type  1   force =     0.04201828    0.02459841    0.02196883
     atom  131 type  1   force =    -0.03773400    0.23041547   -0.22742333
     atom  132 type  1   force =     0.01221132    0.05080617    0.04138378
     atom  133 type  1   force =     0.00586824   -0.03160883   -0.03327453
     atom  134 type  1   force =    -0.04454341   -0.07232211    0.07844631
     atom  135 type  1   force =     0.03877915    0.06618165   -0.10560301
     atom  136 type  1   force =     0.05551570    0.00436924   -0.00674832
     atom  137 type  1   force =    -0.00115475   -0.04426847    0.01259914
     atom  138 type  1   force =     0.00284717    0.05696790    0.03018281
     atom  139 type  1   force =     0.07245587   -0.00919072   -0.08166357
     atom  140 type  1   force =     0.01907282   -0.00955479    0.01186454
     atom  141 type  1   force =    -0.06700072   -0.00277082    0.07315398
     atom  142 type  1   force =     0.08640402   -0.01045822   -0.06454856
     atom  143 type  1   force =     0.02422097   -0.03789738    0.03128564
     atom  144 type  1   force =    -0.11017788   -0.02945572    0.07533999
     atom  145 type  1   force =    -0.03268766   -0.05749201    0.05926513
     atom  146 type  1   force =    -0.11797526    0.08537330    0.02953568
     atom  147 type  1   force =    -0.25970848    0.31774575   -0.08079361
     atom  148 type  1   force =     0.08242119    0.05403682    0.04771523
     atom  149 type  1   force =    -0.08217982   -0.02483369    0.05712297
     atom  150 type  1   force =    -0.01972062    0.04733079   -0.01395827
     atom  151 type  1   force =    -0.03288934   -0.03693474    0.02301149
     atom  152 type  1   force =     0.06046829    0.05890909   -0.00261622
     atom  153 type  1   force =    -0.15918532   -0.46729522   -0.22012501
     atom  154 type  1   force =     0.26635862    0.24542541   -0.03425919
     atom  155 type  1   force =    -0.04046943   -0.07011033   -0.07330556
     atom  156 type  1   force =    -0.08361580    0.22364615    0.26483599
     atom  157 type  1   force =     0.01172158    0.04940024   -0.01650572
     atom  158 type  1   force =    -0.01001046    0.01788177    0.07629260
     atom  159 type  1   force =     0.09060360   -0.00527531   -0.09365416
     atom  160 type  1   force =     0.03136014    0.00212885    0.04255575
     atom  161 type  1   force =    -0.08649347   -0.12478027   -0.01348268
     atom  162 type  1   force =     0.17183206    0.02801916   -0.01604370
     atom  163 type  1   force =    -0.26313815   -0.00245008   -0.23371160
     atom  164 type  1   force =    -0.03657766    0.01617131    0.07334759
     atom  165 type  1   force =    -0.00607119   -0.00144687    0.01218635
     atom  166 type  1   force =     0.09417414   -0.01955247   -0.05722112
     atom  167 type  1   force =    -0.03137745    0.01210315    0.01015085
     atom  168 type  1   force =    -0.07209855    0.00025716    0.09192814
     atom  169 type  1   force =    -0.02633086    0.03757648   -0.02520726
     atom  170 type  1   force =    -0.05327917   -0.01606796   -0.01516312
     atom  171 type  1   force =    -0.04025136    0.00349780   -0.03350988
     atom  172 type  1   force =     0.00055309   -0.05822948    0.06538861
     atom  173 type  1   force =     0.01350566    0.02390026   -0.04582295
     atom  174 type  1   force =     0.06273940   -0.03648789   -0.04536772
     atom  175 type  1   force =    -0.16399858    0.14304452   -0.01222085
     atom  176 type  1   force =    -0.07009565   -0.00603532    0.05052182
     atom  177 type  1   force =    -0.07087706    0.03729785   -0.00610627
     atom  178 type  1   force =     0.04080053    0.04056968   -0.02255057
     atom  179 type  1   force =    -0.06641798   -0.00048097   -0.17222820
     atom  180 type  1   force =     0.08159457   -0.04574784    0.13214825
     atom  181 type  1   force =    -0.07753880    0.03689962    0.04210719
     atom  182 type  1   force =    -0.01477902   -0.20147045    0.25406153
     atom  183 type  1   force =    -0.07182862   -0.02644288    0.05407193
     atom  184 type  1   force =    -0.08978249   -0.03698098   -0.06202319
     atom  185 type  1   force =     0.00778917    0.07886882   -0.07753901
     atom  186 type  1   force =     0.06017536   -0.05529393    0.11676714
     atom  187 type  1   force =    -0.03211011    0.00562535    0.00897374
     atom  188 type  1   force =    -0.02767165   -0.02262644    0.00032365
     atom  189 type  1   force =    -0.06096244    0.05605856   -0.00769826
     atom  190 type  1   force =     0.01183688    0.01500203   -0.00926535
     atom  191 type  1   force =     0.03217346    0.00914812    0.01942506
     atom  192 type  1   force =     0.22304528   -0.02426316   -0.23241770
     atom  193 type  1   force =    -0.06889397    0.08575583   -0.10678623
     atom  194 type  1   force =     0.00375611   -0.09166423    0.09370290
     atom  195 type  1   force =     0.09934059    0.08668417    0.01746924
     atom  196 type  1   force =     0.27181844   -0.32205281   -0.11213667
     atom  197 type  1   force =    -0.10755618   -0.05411832   -0.01759606
     atom  198 type  1   force =     0.05269041    0.06380030   -0.05448197
     atom  199 type  1   force =     0.13489017   -0.15363321    0.05644094
     atom  200 type  1   force =    -0.11775950    0.10908464    0.01046058
     atom  201 type  1   force =    -0.03610752   -0.06169261   -0.03240143
     atom  202 type  1   force =    -0.06966481    0.00050459   -0.08900332
     atom  203 type  1   force =    -0.02980467    0.03142226    0.01229995
     atom  204 type  1   force =    -0.04274266    0.08891994   -0.07213991
     atom  205 type  1   force =    -0.02561025   -0.10103376    0.05503926
     atom  206 type  1   force =    -0.00858460    0.06657405    0.03302257
     atom  207 type  1   force =     0.05847867    0.04217037    0.01201927
     atom  208 type  1   force =     0.01614800    0.05753543    0.05541603
     atom  209 type  1   force =     0.10320228   -0.10659643   -0.01870924
     atom  210 type  1   force =    -0.07826971    0.04151742    0.02052616
     atom  211 type  1   force =     0.05051303   -0.03138455   -0.03490821
     atom  212 type  1   force =     0.01320457   -0.02663393   -0.00813899
     atom  213 type  1   force =     0.05183709    0.01060347    0.09472780
     atom  214 type  1   force =     0.03595112   -0.00420320   -0.03218892
     atom  215 type  1   force =     0.05614786   -0.01837064    0.01131703
     atom  216 type  1   force =    -0.02549485    0.05294559    0.01081642
     atom  217 type  1   force =    -0.01027025   -0.14496708   -0.11896653
     atom  218 type  1   force =    -0.03810679    0.04979279    0.03467149
     atom  219 type  1   force =     0.04412843    0.02164697    0.02086581
     atom  220 type  1   force =     0.00945576    0.15243165    0.09597208
     atom  221 type  1   force =    -0.02956360   -0.07089936    0.09043048
     atom  222 type  1   force =     0.06576475    0.04722919    0.01993108
     atom  223 type  1   force =    -0.02947821    0.07797854   -0.10980536
     atom  224 type  1   force =     0.14611995   -0.16407767   -0.01998742
     atom  225 type  1   force =     0.03847342    0.05093531    0.01937798
     atom  226 type  1   force =     0.00884986    0.00577720   -0.00275852
     atom  227 type  1   force =    -0.01487140   -0.27929915   -0.27118119
     atom  228 type  1   force =    -0.09847911   -0.14198301   -0.07432829
     atom  229 type  1   force =     0.26635747    0.00824270    0.23657976
     atom  230 type  1   force =     0.06730382    0.28181572    0.28986785
     atom  231 type  1   force =     0.01952526   -0.01214188    0.02022068
     atom  232 type  1   force =     0.00187957    0.01810068   -0.04015418
     atom  233 type  1   force =     0.00239839   -0.01215902   -0.02105377
     atom  234 type  1   force =     0.00326812    0.01218592    0.01083632
     atom  235 type  1   force =    -0.11151928   -0.07450759    0.02663040
     atom  236 type  1   force =     0.05953013    0.00647840    0.01336915
     atom  237 type  1   force =     0.03587280    0.01623517   -0.00636528
     atom  238 type  1   force =     0.01791822   -0.30014475   -0.24888083
     atom  239 type  1   force =     0.15227935   -0.13764758   -0.01690886
     atom  240 type  1   force =    -0.16226714    0.14035966   -0.00160750
     atom  241 type  1   force =    -0.12116795   -0.11618491    0.01211744
     atom  242 type  1   force =    -0.12491924    0.26058008   -0.01570259
     atom  243 type  1   force =     0.12967919    0.03208377    0.04604282
     atom  244 type  1   force =    -0.05407753   -0.10522333    0.07712030
     atom  245 type  1   force =     0.13014190    0.05420840    0.13818798
     atom  246 type  1   force =    -0.21067650    0.08739770    0.08162300
     atom  247 type  1   force =     0.00047083    0.03447852   -0.02073277
     atom  248 type  1   force =     0.05016502    0.03828055   -0.00187129
     atom  249 type  1   force =     0.05020084    0.05086471   -0.01568508
     atom  250 type  1   force =    -0.05050555   -0.05077636   -0.04275850
     atom  251 type  1   force =     0.02662415   -0.02606947   -0.04220237
     atom  252 type  1   force =    -0.00281360   -0.00823493   -0.01589466
     atom  253 type  1   force =    -0.08692630    0.00847353   -0.00623334
     atom  254 type  1   force =     0.02944011   -0.01591982   -0.04077403
     atom  255 type  1   force =    -0.01031458    0.25619597    0.28826190
     atom  256 type  1   force =    -0.08127000    0.01281112   -0.04496895

     Total force =     2.587723     Total SCF correction =     0.000186


     entering subroutine stress ...

          total   stress  (Ry/bohr**3)                   (kbar)     P=  131.01
   0.00082446   0.00001085  -0.00003214        121.28      1.60     -4.73
   0.00001085   0.00094341   0.00003670          1.60    138.78      5.40
  -0.00003214   0.00003670   0.00090395         -4.73      5.40    132.98


     Writing output data file 7db4242e7950.save
 
     init_run     :     78.06s CPU     83.62s WALL (       1 calls)
     electrons    :   2262.80s CPU   2356.91s WALL (       1 calls)
     forces       :     40.93s CPU     41.20s WALL (       1 calls)
     stress       :    190.08s CPU    190.66s WALL (       1 calls)

     Called by init_run:
     wfcinit      :     72.09s CPU     76.54s WALL (       1 calls)
     potinit      :      0.83s CPU      1.10s WALL (       1 calls)

     Called by electrons:
     c_bands      :   2012.31s CPU   2087.53s WALL (      14 calls)
     sum_band     :    182.89s CPU    196.76s WALL (      14 calls)
     v_of_rho     :      2.51s CPU      3.88s WALL (      15 calls)
     newd         :     55.27s CPU     55.82s WALL (      15 calls)
     mix_rho      :      5.03s CPU      6.69s WALL (      14 calls)

     Called by c_bands:
     init_us_2    :      5.21s CPU      5.30s WALL (     124 calls)
     cegterg      :   1992.59s CPU   2067.49s WALL (      56 calls)

     Called by *egterg:
     h_psi        :    722.11s CPU    792.01s WALL (     301 calls)
     s_psi        :    205.70s CPU    206.80s WALL (     301 calls)
     g_psi        :      2.81s CPU      2.82s WALL (     241 calls)
     cdiaghg      :    732.79s CPU    734.19s WALL (     297 calls)

     Called by h_psi:
     add_vuspsi   :    205.65s CPU    206.70s WALL (     301 calls)

     General routines
     calbec       :    320.06s CPU    320.74s WALL (     365 calls)
     fft          :      3.74s CPU      6.83s WALL (     261 calls)
     ffts         :      1.73s CPU      3.19s WALL (     198 calls)
     fftw         :    290.28s CPU    371.38s WALL (  177432 calls)
     interpolate  :      0.81s CPU      1.35s WALL (      29 calls)
     davcio       :      0.00s CPU      5.39s WALL (       4 calls)
 
     Parallel routines
     fft_scatter  :    169.40s CPU    222.76s WALL (  177891 calls)
 
     PAW routines
     PAW_pot      :      6.12s CPU      6.46s WALL (      15 calls)
     PAW_ddot     :      2.70s CPU      2.77s WALL (     346 calls)
 
     PWSCF        : 42m52.86s CPU    44m40.25s WALL

 
   This run was terminated on:  23:34: 7  18Oct2013            

=------------------------------------------------------------------------------=
   JOB DONE.
=------------------------------------------------------------------------------=
