
 ========================   JOB MAP   ========================

 Data for node: bb2a3c26	Num procs: 8
 	Process OMPI jobid: [39138,1] Process rank: 0
 	Process OMPI jobid: [39138,1] Process rank: 4
 	Process OMPI jobid: [39138,1] Process rank: 8
 	Process OMPI jobid: [39138,1] Process rank: 12
 	Process OMPI jobid: [39138,1] Process rank: 16
 	Process OMPI jobid: [39138,1] Process rank: 20
 	Process OMPI jobid: [39138,1] Process rank: 24
 	Process OMPI jobid: [39138,1] Process rank: 28

 Data for node: bb2a3c17	Num procs: 8
 	Process OMPI jobid: [39138,1] Process rank: 1
 	Process OMPI jobid: [39138,1] Process rank: 5
 	Process OMPI jobid: [39138,1] Process rank: 9
 	Process OMPI jobid: [39138,1] Process rank: 13
 	Process OMPI jobid: [39138,1] Process rank: 17
 	Process OMPI jobid: [39138,1] Process rank: 21
 	Process OMPI jobid: [39138,1] Process rank: 25
 	Process OMPI jobid: [39138,1] Process rank: 29

 Data for node: bb2a3c02	Num procs: 8
 	Process OMPI jobid: [39138,1] Process rank: 2
 	Process OMPI jobid: [39138,1] Process rank: 6
 	Process OMPI jobid: [39138,1] Process rank: 10
 	Process OMPI jobid: [39138,1] Process rank: 14
 	Process OMPI jobid: [39138,1] Process rank: 18
 	Process OMPI jobid: [39138,1] Process rank: 22
 	Process OMPI jobid: [39138,1] Process rank: 26
 	Process OMPI jobid: [39138,1] Process rank: 30

 Data for node: bb2a3a24	Num procs: 8
 	Process OMPI jobid: [39138,1] Process rank: 3
 	Process OMPI jobid: [39138,1] Process rank: 7
 	Process OMPI jobid: [39138,1] Process rank: 11
 	Process OMPI jobid: [39138,1] Process rank: 15
 	Process OMPI jobid: [39138,1] Process rank: 19
 	Process OMPI jobid: [39138,1] Process rank: 23
 	Process OMPI jobid: [39138,1] Process rank: 27
 	Process OMPI jobid: [39138,1] Process rank: 31

 =============================================================

     Program PWSCF v.5.0.2 (svn rev. 9392) starts on 15Oct2013 at  3:54:54 

     This program is part of the open-source Quantum ESPRESSO suite
     for quantum simulation of materials; please cite
         "P. Giannozzi et al., J. Phys.:Condens. Matter 21 395502 (2009);
          URL http://www.quantum-espresso.org", 
     in publications or presentations arising from this work. More details at
     http://www.quantum-espresso.org/quote.php

     Parallel version (MPI), running on    32 processors
     R & G space division:  proc/nbgrp/npool/nimage =      32

     Current dimensions of program PWSCF are:
     Max number of different atomic species (ntypx) = 10
     Max number of k-points (npk) =  40000
     Max angular momentum in pseudopotentials (lmaxx) =  3
     Reading input from /gpfs/bb/bxp912/pwscf/input_4e8bad558dcf6_8b8b.in
Warning: card &IONS ignored
Warning: card ION_DYNAMICS='BFGS', ignored
Warning: card / ignored
Warning: card &CELL ignored
Warning: card CELL_DYNAMICS='BFGS', ignored
Warning: card PRESS=0.0, ignored
Warning: card CELL_FACTOR=2.0, ignored
Warning: card / ignored
               file Al.pbe-n-kjpaw_psl.0.1.UPF: wavefunction(s)  3S renormalized

     Subspace diagonalization in iterative solution of the eigenvalue problem:
     a serial algorithm will be used

 
     Parallelization info
     --------------------
     sticks:   dense  smooth     PW     G-vecs:    dense   smooth      PW
     Min         481     324     84                44979    24827    3248
     Max         483     325     85                44982    24855    3250
     Sum       15421   10389   2693              1439361   794839  103959
 


     bravais-lattice index     =           14
     lattice parameter (alat)  =      30.5130  a.u.
     unit-cell volume          =   28409.0236 (a.u.)^3
     number of atoms/cell      =          256
     number of atomic types    =            1
     number of electrons       =       768.00
     number of Kohn-Sham states=          461
     kinetic-energy cutoff     =      35.0000  Ry
     charge density cutoff     =     208.0000  Ry
     convergence threshold     =      1.0E-07
     mixing beta               =       0.7000
     number of iterations used =            8  local-TF  mixing
     Exchange-correlation      =  SLA  PW   PBX  PBC ( 1 4 3 4 0)
     EXX-fraction              =        0.00

     celldm(1)=  30.513037  celldm(2)=   1.000000  celldm(3)=   1.000000
     celldm(4)=   0.000000  celldm(5)=   0.000000  celldm(6)=   0.000000

     crystal axes: (cart. coord. in units of alat)
               a(1) = (   1.000000   0.000000   0.000000 )  
               a(2) = (   0.000000   1.000000   0.000000 )  
               a(3) = (   0.000000   0.000000   1.000000 )  

     reciprocal axes: (cart. coord. in units 2 pi/alat)
               b(1) = (  1.000000  0.000000  0.000000 )  
               b(2) = (  0.000000  1.000000  0.000000 )  
               b(3) = (  0.000000  0.000000  1.000000 )  


     PseudoPot. # 1 for Al read from file:
     /gpfs/bb/bxp912/pseudopotentials/Al.pbe-n-kjpaw_psl.0.1.UPF
     MD5 check sum: c290c600b2b3f4e95cb15d62bc64d19d
     Pseudo is Projector augmented-wave + core cor, Zval =  3.0
     Generated using "atomic" code by A. Dal Corso  v.5.0.2 svn rev. 9392
     Shape of augmentation charge: PSQ
     Using radial grid of 1135 points,  4 beta functions with: 
                l(1) =   0
                l(2) =   0
                l(3) =   1
                l(4) =   1
     Q(r) pseudized with 0 coefficients 


     atomic species   valence    mass     pseudopotential
        N              3.00    26.98154     Al( 1.00)

     No symmetry found



   Cartesian axes

     site n.     atom                  positions (alat units)
         1           N   tau(   1) = (   0.0038350   0.9979310   0.0192790  )
         2           N   tau(   2) = (   0.1334900   0.1167960   0.9952070  )
         3           N   tau(   3) = (   0.1333060   0.0084250   0.1133690  )
         4           N   tau(   4) = (   0.9898630   0.1189560   0.1358200  )
         5           N   tau(   5) = (   0.2331220   0.0117710   0.0089240  )
         6           N   tau(   6) = (   0.2341710   0.1381930   0.1146120  )
         7           N   tau(   7) = (   0.3914240   0.1172710   0.0122510  )
         8           N   tau(   8) = (   0.3832860   0.9835600   0.1148900  )
         9           N   tau(   9) = (   0.0114120   0.9776180   0.2453950  )
        10           N   tau(  10) = (   0.1366530   0.1089950   0.2457640  )
        11           N   tau(  11) = (   0.1544080   0.9890640   0.3626150  )
        12           N   tau(  12) = (   0.9684120   0.1382940   0.3834830  )
        13           N   tau(  13) = (   0.0138770   0.9766740   0.5063400  )
        14           N   tau(  14) = (   0.1383890   0.1195900   0.4914500  )
        15           N   tau(  15) = (   0.1452640   0.9954900   0.6072880  )
        16           N   tau(  16) = (   0.0143830   0.0965350   0.6342210  )
        17           N   tau(  17) = (   0.9744550   0.0177800   0.7366290  )
        18           N   tau(  18) = (   0.1397490   0.1402870   0.7370370  )
        19           N   tau(  19) = (   0.1018480   0.0123210   0.8899030  )
        20           N   tau(  20) = (   0.9914800   0.1107620   0.8804100  )
        21           N   tau(  21) = (   0.0132360   0.2431860   0.9795940  )
        22           N   tau(  22) = (   0.1208030   0.3538570   0.9901320  )
        23           N   tau(  23) = (   0.1521420   0.2653700   0.1105960  )
        24           N   tau(  24) = (   0.0123800   0.3645320   0.1393860  )
        25           N   tau(  25) = (   0.0217100   0.2358080   0.2407170  )
        26           N   tau(  26) = (   0.0983730   0.3623360   0.2617700  )
        27           N   tau(  27) = (   0.1412230   0.2421730   0.3638560  )
        28           N   tau(  28) = (   0.9952010   0.3904710   0.3703740  )
        29           N   tau(  29) = (   0.0036170   0.2274960   0.5156010  )
        30           N   tau(  30) = (   0.1118720   0.3629830   0.5057320  )
        31           N   tau(  31) = (   0.0964310   0.2678840   0.6165380  )
        32           N   tau(  32) = (   0.0255200   0.3956660   0.6396390  )
        33           N   tau(  33) = (   0.0203810   0.2325500   0.7370410  )
        34           N   tau(  34) = (   0.1027460   0.3628840   0.7450200  )
        35           N   tau(  35) = (   0.1351350   0.2310790   0.8532320  )
        36           N   tau(  36) = (   0.9825940   0.3702380   0.8644930  )
        37           N   tau(  37) = (   0.0204260   0.5107830   0.9862580  )
        38           N   tau(  38) = (   0.1296390   0.6450000   0.9965380  )
        39           N   tau(  39) = (   0.1420730   0.4963550   0.1432420  )
        40           N   tau(  40) = (   0.0119630   0.6453960   0.1302360  )
        41           N   tau(  41) = (   0.9910730   0.4850870   0.2615430  )
        42           N   tau(  42) = (   0.1442770   0.6364520   0.2550520  )
        43           N   tau(  43) = (   0.1348310   0.5131290   0.3797270  )
        44           N   tau(  44) = (   0.9848900   0.6112780   0.3690950  )
        45           N   tau(  45) = (   0.0228110   0.4858460   0.4982510  )
        46           N   tau(  46) = (   0.1117840   0.6398720   0.5173950  )
        47           N   tau(  47) = (   0.1342620   0.4879250   0.6031250  )
        48           N   tau(  48) = (   0.9774320   0.6448040   0.6374580  )
        49           N   tau(  49) = (   0.9946120   0.5190730   0.7240600  )
        50           N   tau(  50) = (   0.1189840   0.6101320   0.7346490  )
        51           N   tau(  51) = (   0.1122020   0.5023810   0.8872560  )
        52           N   tau(  52) = (   0.9901620   0.6143730   0.8593400  )
        53           N   tau(  53) = (   0.0124400   0.7358620   0.0052240  )
        54           N   tau(  54) = (   0.1344970   0.8849770   0.0012410  )
        55           N   tau(  55) = (   0.1316550   0.7575630   0.0983270  )
        56           N   tau(  56) = (   0.9873350   0.8680320   0.1081360  )
        57           N   tau(  57) = (   0.9901030   0.7639210   0.2470100  )
        58           N   tau(  58) = (   0.1308780   0.8500610   0.2219380  )
        59           N   tau(  59) = (   0.1505920   0.7592090   0.3875380  )
        60           N   tau(  60) = (   0.0157720   0.8627730   0.3612680  )
        61           N   tau(  61) = (   0.0215240   0.7524060   0.5164510  )
        62           N   tau(  62) = (   0.1051510   0.8980450   0.5242720  )
        63           N   tau(  63) = (   0.1068270   0.7627420   0.6036940  )
        64           N   tau(  64) = (   0.9806390   0.8544110   0.6319230  )
        65           N   tau(  65) = (   0.0125560   0.7439510   0.7708090  )
        66           N   tau(  66) = (   0.1120120   0.8513010   0.7283740  )
        67           N   tau(  67) = (   0.1151290   0.7317740   0.8824990  )
        68           N   tau(  68) = (   0.9917440   0.8949600   0.8565750  )
        69           N   tau(  69) = (   0.2402030   0.9861070   0.2696680  )
        70           N   tau(  70) = (   0.3597940   0.1418190   0.2386870  )
        71           N   tau(  71) = (   0.3608960   0.0105830   0.3606910  )
        72           N   tau(  72) = (   0.2576040   0.1295010   0.3841450  )
        73           N   tau(  73) = (   0.2684770   0.9899800   0.4886430  )
        74           N   tau(  74) = (   0.3858090   0.1046100   0.5050000  )
        75           N   tau(  75) = (   0.3538300   0.9946960   0.6104050  )
        76           N   tau(  76) = (   0.2416770   0.1394170   0.6053410  )
        77           N   tau(  77) = (   0.2533270   0.0086720   0.7560520  )
        78           N   tau(  78) = (   0.3633680   0.1167960   0.7351480  )
        79           N   tau(  79) = (   0.3704610   0.0138640   0.8688560  )
        80           N   tau(  80) = (   0.2344140   0.1374240   0.8591290  )
        81           N   tau(  81) = (   0.2607390   0.2614110   0.0161930  )
        82           N   tau(  82) = (   0.3846390   0.3642330   0.9766540  )
        83           N   tau(  83) = (   0.3658810   0.2634130   0.1163450  )
        84           N   tau(  84) = (   0.2598930   0.3846430   0.1348290  )
        85           N   tau(  85) = (   0.2335990   0.2637130   0.2725090  )
        86           N   tau(  86) = (   0.3862750   0.3840250   0.2391760  )
        87           N   tau(  87) = (   0.3831500   0.2305460   0.3632280  )
        88           N   tau(  88) = (   0.2410540   0.3681370   0.3637990  )
        89           N   tau(  89) = (   0.2436160   0.2267790   0.4802630  )
        90           N   tau(  90) = (   0.3795910   0.3648620   0.4796390  )
        91           N   tau(  91) = (   0.3776730   0.2651230   0.6333350  )
        92           N   tau(  92) = (   0.2606800   0.3513130   0.6334210  )
        93           N   tau(  93) = (   0.2537430   0.2419040   0.7626610  )
        94           N   tau(  94) = (   0.3570670   0.3614920   0.7416920  )
        95           N   tau(  95) = (   0.3781310   0.2532910   0.8796230  )
        96           N   tau(  96) = (   0.2328000   0.3829590   0.8868770  )
        97           N   tau(  97) = (   0.2368630   0.4944880   0.9928680  )
        98           N   tau(  98) = (   0.4000850   0.6287480   0.0129860  )
        99           N   tau(  99) = (   0.3466730   0.5093630   0.1203710  )
       100           N   tau( 100) = (   0.2472870   0.6278070   0.1385220  )
       101           N   tau( 101) = (   0.2517810   0.5080430   0.2686640  )
       102           N   tau( 102) = (   0.3554490   0.6410260   0.2275000  )
       103           N   tau( 103) = (   0.3643550   0.4925930   0.3700830  )
       104           N   tau( 104) = (   0.2449540   0.6312800   0.3900150  )
       105           N   tau( 105) = (   0.2550820   0.4893970   0.5179710  )
       106           N   tau( 106) = (   0.3834420   0.6148840   0.4953140  )
       107           N   tau( 107) = (   0.3844240   0.4859350   0.6494050  )
       108           N   tau( 108) = (   0.2475590   0.6355370   0.6456730  )
       109           N   tau( 109) = (   0.2459480   0.5142100   0.7613680  )
       110           N   tau( 110) = (   0.3874330   0.6227990   0.7331830  )
       111           N   tau( 111) = (   0.3403860   0.5143290   0.8891540  )
       112           N   tau( 112) = (   0.2360270   0.6094420   0.8788920  )
       113           N   tau( 113) = (   0.2320600   0.7525740   0.0096390  )
       114           N   tau( 114) = (   0.3579620   0.8972600   0.0156940  )
       115           N   tau( 115) = (   0.3908030   0.7800420   0.1180460  )
       116           N   tau( 116) = (   0.2371500   0.8930110   0.1387280  )
       117           N   tau( 117) = (   0.2744490   0.7605450   0.2384810  )
       118           N   tau( 118) = (   0.3834880   0.8885680   0.2619580  )
       119           N   tau( 119) = (   0.3674220   0.7604970   0.3900540  )
       120           N   tau( 120) = (   0.2627710   0.8847480   0.3697640  )
       121           N   tau( 121) = (   0.2416810   0.7319130   0.5211880  )
       122           N   tau( 122) = (   0.3872910   0.8605300   0.4883080  )
       123           N   tau( 123) = (   0.3860350   0.7395830   0.6303360  )
       124           N   tau( 124) = (   0.2474930   0.8817930   0.6376000  )
       125           N   tau( 125) = (   0.2367140   0.7580210   0.7354690  )
       126           N   tau( 126) = (   0.3877670   0.8705720   0.7528410  )
       127           N   tau( 127) = (   0.3576500   0.7311400   0.8872250  )
       128           N   tau( 128) = (   0.2628300   0.8698550   0.8721400  )
       129           N   tau( 129) = (   0.5219010   0.0142740   0.0122120  )
       130           N   tau( 130) = (   0.6627290   0.1333160   0.0039840  )
       131           N   tau( 131) = (   0.6099570   0.9790340   0.0916020  )
       132           N   tau( 132) = (   0.4831490   0.1132550   0.1182970  )
       133           N   tau( 133) = (   0.5222400   0.9988150   0.2664540  )
       134           N   tau( 134) = (   0.6333840   0.1199870   0.2329560  )
       135           N   tau( 135) = (   0.6198980   0.9832160   0.3778380  )
       136           N   tau( 136) = (   0.4905730   0.1138080   0.3865670  )
       137           N   tau( 137) = (   0.5062270   0.0073350   0.4810050  )
       138           N   tau( 138) = (   0.6404990   0.1183350   0.4823140  )
       139           N   tau( 139) = (   0.6082710   0.0133850   0.6228790  )
       140           N   tau( 140) = (   0.5120300   0.1301230   0.6377900  )
       141           N   tau( 141) = (   0.5046440   0.9794330   0.7439920  )
       142           N   tau( 142) = (   0.6274380   0.1387820   0.7517910  )
       143           N   tau( 143) = (   0.6405660   0.9933280   0.8645430  )
       144           N   tau( 144) = (   0.4807800   0.1290100   0.8780590  )
       145           N   tau( 145) = (   0.5177160   0.2425240   0.9811390  )
       146           N   tau( 146) = (   0.6209910   0.3590470   0.9882080  )
       147           N   tau( 147) = (   0.6161560   0.2428350   0.1071830  )
       148           N   tau( 148) = (   0.5098650   0.4001200   0.1149060  )
       149           N   tau( 149) = (   0.5130830   0.2626900   0.2349970  )
       150           N   tau( 150) = (   0.6083060   0.3808930   0.2401880  )
       151           N   tau( 151) = (   0.6071140   0.2726990   0.3646310  )
       152           N   tau( 152) = (   0.5101550   0.3500670   0.3599790  )
       153           N   tau( 153) = (   0.4797400   0.2575600   0.4855790  )
       154           N   tau( 154) = (   0.6181800   0.3959760   0.4796500  )
       155           N   tau( 155) = (   0.6155660   0.2474490   0.6110650  )
       156           N   tau( 156) = (   0.5119290   0.3953300   0.6485220  )
       157           N   tau( 157) = (   0.5197580   0.2524180   0.7236140  )
       158           N   tau( 158) = (   0.6121130   0.3579350   0.7351150  )
       159           N   tau( 159) = (   0.6361090   0.2358050   0.8892490  )
       160           N   tau( 160) = (   0.4778310   0.3696260   0.8629640  )
       161           N   tau( 161) = (   0.4905450   0.5062020   0.0110590  )
       162           N   tau( 162) = (   0.6371690   0.6359680   0.9947490  )
       163           N   tau( 163) = (   0.6327090   0.4922040   0.1368700  )
       164           N   tau( 164) = (   0.4892770   0.6068050   0.1337110  )
       165           N   tau( 165) = (   0.5131890   0.5108260   0.2437690  )
       166           N   tau( 166) = (   0.6137140   0.5963910   0.2328370  )
       167           N   tau( 167) = (   0.6418470   0.5168030   0.3943350  )
       168           N   tau( 168) = (   0.4858730   0.6381360   0.3697940  )
       169           N   tau( 169) = (   0.5186740   0.4968050   0.4857810  )
       170           N   tau( 170) = (   0.6291020   0.6384550   0.4767880  )
       171           N   tau( 171) = (   0.6135130   0.5085950   0.6281850  )
       172           N   tau( 172) = (   0.5218000   0.6153300   0.6231150  )
       173           N   tau( 173) = (   0.5126100   0.4911840   0.7625020  )
       174           N   tau( 174) = (   0.6318680   0.6266000   0.7505450  )
       175           N   tau( 175) = (   0.6109880   0.5200440   0.8886550  )
       176           N   tau( 176) = (   0.4685700   0.6317120   0.8877370  )
       177           N   tau( 177) = (   0.5097990   0.7534790   0.9948080  )
       178           N   tau( 178) = (   0.6520030   0.8589250   0.0179680  )
       179           N   tau( 179) = (   0.6415240   0.7641970   0.1170510  )
       180           N   tau( 180) = (   0.4897900   0.8590740   0.1299920  )
       181           N   tau( 181) = (   0.5038180   0.7603440   0.2603000  )
       182           N   tau( 182) = (   0.6128290   0.8643520   0.2374030  )
       183           N   tau( 183) = (   0.6103470   0.7427100   0.3934440  )
       184           N   tau( 184) = (   0.5145110   0.8719540   0.3837740  )
       185           N   tau( 185) = (   0.5226190   0.7430880   0.4650930  )
       186           N   tau( 186) = (   0.6510280   0.8857630   0.5091170  )
       187           N   tau( 187) = (   0.6157090   0.7356220   0.6141460  )
       188           N   tau( 188) = (   0.5091500   0.8908120   0.6134480  )
       189           N   tau( 189) = (   0.4862830   0.7544230   0.7394960  )
       190           N   tau( 190) = (   0.6516380   0.8804570   0.7796800  )
       191           N   tau( 191) = (   0.6370020   0.7432430   0.8659750  )
       192           N   tau( 192) = (   0.4819370   0.8647700   0.8862400  )
       193           N   tau( 193) = (   0.7356950   0.9750110   0.0098730  )
       194           N   tau( 194) = (   0.8958040   0.1118140   0.9855020  )
       195           N   tau( 195) = (   0.8849580   0.9906950   0.1069090  )
       196           N   tau( 196) = (   0.7647970   0.1333300   0.1170370  )
       197           N   tau( 197) = (   0.7396660   0.0086600   0.2378040  )
       198           N   tau( 198) = (   0.8600340   0.1383790   0.2378960  )
       199           N   tau( 199) = (   0.8711220   0.0268150   0.3651770  )
       200           N   tau( 200) = (   0.7353500   0.1175110   0.3834970  )
       201           N   tau( 201) = (   0.7592590   0.9904100   0.4809230  )
       202           N   tau( 202) = (   0.8670760   0.1408750   0.4961130  )
       203           N   tau( 203) = (   0.8844990   0.9897890   0.6152870  )
       204           N   tau( 204) = (   0.7268370   0.1339510   0.6203670  )
       205           N   tau( 205) = (   0.7377620   0.9884540   0.7328750  )
       206           N   tau( 206) = (   0.8564350   0.1418430   0.7668850  )
       207           N   tau( 207) = (   0.8561610   0.0193930   0.8612550  )
       208           N   tau( 208) = (   0.7323900   0.1101770   0.8979870  )
       209           N   tau( 209) = (   0.7550510   0.2383740   0.0170080  )
       210           N   tau( 210) = (   0.8690420   0.3843290   0.9963840  )
       211           N   tau( 211) = (   0.8857470   0.2425930   0.1289470  )
       212           N   tau( 212) = (   0.7322670   0.3725910   0.1140290  )
       213           N   tau( 213) = (   0.7371840   0.2638000   0.2606730  )
       214           N   tau( 214) = (   0.8670750   0.3648390   0.2491290  )
       215           N   tau( 215) = (   0.8843450   0.2610920   0.3566120  )
       216           N   tau( 216) = (   0.7312170   0.3852330   0.3859490  )
       217           N   tau( 217) = (   0.7537570   0.2599080   0.5207240  )
       218           N   tau( 218) = (   0.8586670   0.3790870   0.5148930  )
       219           N   tau( 219) = (   0.8538370   0.2462380   0.6405270  )
       220           N   tau( 220) = (   0.7611770   0.3823830   0.6080860  )
       221           N   tau( 221) = (   0.7608810   0.2414120   0.7353510  )
       222           N   tau( 222) = (   0.8659360   0.3742780   0.7313930  )
       223           N   tau( 223) = (   0.8621010   0.2410640   0.8530520  )
       224           N   tau( 224) = (   0.7441090   0.3513540   0.8795970  )
       225           N   tau( 225) = (   0.7415590   0.4846200   0.9884150  )
       226           N   tau( 226) = (   0.8883970   0.6220070   0.9823350  )
       227           N   tau( 227) = (   0.8603100   0.5105700   0.1054710  )
       228           N   tau( 228) = (   0.7626110   0.6432360   0.1214450  )
       229           N   tau( 229) = (   0.7295300   0.5121840   0.2390960  )
       230           N   tau( 230) = (   0.8639790   0.6185270   0.2582090  )
       231           N   tau( 231) = (   0.8614050   0.4862140   0.3576200  )
       232           N   tau( 232) = (   0.7592620   0.6372890   0.3703640  )
       233           N   tau( 233) = (   0.7523700   0.4821200   0.4877460  )
       234           N   tau( 234) = (   0.8622130   0.6290720   0.5070640  )
       235           N   tau( 235) = (   0.8593390   0.4919720   0.6063360  )
       236           N   tau( 236) = (   0.7369460   0.6357680   0.6289440  )
       237           N   tau( 237) = (   0.7633560   0.5146550   0.7566870  )
       238           N   tau( 238) = (   0.8631980   0.6352820   0.7536990  )
       239           N   tau( 239) = (   0.8691260   0.4908260   0.8906700  )
       240           N   tau( 240) = (   0.7329650   0.6324140   0.8836030  )
       241           N   tau( 241) = (   0.7635870   0.7383450   0.0037990  )
       242           N   tau( 242) = (   0.8672100   0.8441610   0.9826010  )
       243           N   tau( 243) = (   0.8901000   0.7604340   0.1381900  )
       244           N   tau( 244) = (   0.7524380   0.8701600   0.1525350  )
       245           N   tau( 245) = (   0.7264810   0.7427470   0.2675140  )
       246           N   tau( 246) = (   0.8675470   0.8854940   0.2394040  )
       247           N   tau( 247) = (   0.8835020   0.7442430   0.3887470  )
       248           N   tau( 248) = (   0.7384560   0.8819430   0.3651860  )
       249           N   tau( 249) = (   0.7400220   0.7623680   0.4824870  )
       250           N   tau( 250) = (   0.8662130   0.8673250   0.4786010  )
       251           N   tau( 251) = (   0.8793970   0.7605420   0.6045420  )
       252           N   tau( 252) = (   0.7486910   0.8875870   0.6363460  )
       253           N   tau( 253) = (   0.7544410   0.7390680   0.7700980  )
       254           N   tau( 254) = (   0.8703320   0.8824700   0.7330530  )
       255           N   tau( 255) = (   0.8806980   0.7666270   0.8891780  )
       256           N   tau( 256) = (   0.7391600   0.8573640   0.8675620  )

     number of k points=     4  Marzari-Vanderbilt smearing, width (Ry)=  0.0500
                       cart. coord. in units 2pi/alat
        k(    1) = (   0.2500000   0.2500000   0.2500000), wk =   0.5000000
        k(    2) = (  -0.2500000  -0.2500000   0.2500000), wk =   0.5000000
        k(    3) = (  -0.2500000   0.2500000  -0.2500000), wk =   0.5000000
        k(    4) = (   0.2500000  -0.2500000  -0.2500000), wk =   0.5000000

     Dense  grid:  1439361 G-vectors     FFT dimensions: ( 144, 144, 144)

     Smooth grid:   794839 G-vectors     FFT dimensions: ( 120, 120, 120)

     Largest allocated arrays     est. size (Mb)     dimensions
        Kohn-Sham Wavefunctions        21.93 Mb     (   3117,  461)
        NL pseudopotentials            97.41 Mb     (   3117, 2048)
        Each V/rho on FFT grid          1.58 Mb     ( 103680)
        Each G-vector array             0.34 Mb     (  44980)
        G-vector shells                 0.03 Mb     (   3845)
     Largest temporary arrays     est. size (Mb)     dimensions
        Auxiliary wavefunctions        87.70 Mb     (   3117, 1844)
        Each subspace H/S matrix       51.89 Mb     (1844,1844)
        Each <psi_i|beta_j> matrix     14.41 Mb     (   2048,  461)
        Arrays for rho mixing          12.66 Mb     ( 103680,   8)

     Check: negative/imaginary core charge=   -0.000006    0.000000

     Initial potential from superposition of free atoms

     starting charge  767.41368, renormalised to  768.00000
     Starting wfc are 1024 randomized atomic wfcs
     Checking if some PAW data can be deallocated... 

     total cpu time spent up to now is      156.6 secs

     Self-consistent Calculation

     iteration #  1     ecut=    35.00 Ry     beta=0.70
     Davidson diagonalization with overlap
     ethr =  1.00E-02,  avg # of iterations =  3.0

     total cpu time spent up to now is      441.9 secs

     total energy              =  -10103.90981719 Ry
     Harris-Foulkes estimate   =  -10105.86648458 Ry
     estimated scf accuracy    <       8.35328271 Ry

     iteration #  2     ecut=    35.00 Ry     beta=0.70
     Davidson diagonalization with overlap
     ethr =  1.09E-03,  avg # of iterations =  2.0

     total cpu time spent up to now is      627.6 secs

     total energy              =  -10103.66485286 Ry
     Harris-Foulkes estimate   =  -10104.57875917 Ry
     estimated scf accuracy    <       2.16312263 Ry

     iteration #  3     ecut=    35.00 Ry     beta=0.70
     Davidson diagonalization with overlap
     ethr =  2.82E-04,  avg # of iterations =  5.5

     total cpu time spent up to now is      976.9 secs

     total energy              =  -10104.31843676 Ry
     Harris-Foulkes estimate   =  -10104.40304275 Ry
     estimated scf accuracy    <       0.53064856 Ry

     iteration #  4     ecut=    35.00 Ry     beta=0.70
     Davidson diagonalization with overlap
     ethr =  6.91E-05,  avg # of iterations =  3.8

     total cpu time spent up to now is     1173.9 secs

     total energy              =  -10104.27865419 Ry
     Harris-Foulkes estimate   =  -10104.34392396 Ry
     estimated scf accuracy    <       0.19495935 Ry

     iteration #  5     ecut=    35.00 Ry     beta=0.70
     Davidson diagonalization with overlap
     ethr =  2.54E-05,  avg # of iterations =  9.8

     total cpu time spent up to now is     1546.0 secs

     total energy              =  -10104.32557776 Ry
     Harris-Foulkes estimate   =  -10104.33193565 Ry
     estimated scf accuracy    <       0.04386527 Ry

     iteration #  6     ecut=    35.00 Ry     beta=0.70
     Davidson diagonalization with overlap
     ethr =  5.71E-06,  avg # of iterations =  6.5

     total cpu time spent up to now is     1774.4 secs

     total energy              =  -10104.32411693 Ry
     Harris-Foulkes estimate   =  -10104.32796881 Ry
     estimated scf accuracy    <       0.01327900 Ry

     iteration #  7     ecut=    35.00 Ry     beta=0.70
     Davidson diagonalization with overlap
     ethr =  1.73E-06,  avg # of iterations =  9.5

     total cpu time spent up to now is     2174.4 secs

     total energy              =  -10104.32719435 Ry
     Harris-Foulkes estimate   =  -10104.32768522 Ry
     estimated scf accuracy    <       0.00283297 Ry

     iteration #  8     ecut=    35.00 Ry     beta=0.70
     Davidson diagonalization with overlap
     ethr =  3.69E-07,  avg # of iterations =  3.0

     total cpu time spent up to now is     2365.8 secs

     total energy              =  -10104.32730404 Ry
     Harris-Foulkes estimate   =  -10104.32742088 Ry
     estimated scf accuracy    <       0.00045427 Ry

     iteration #  9     ecut=    35.00 Ry     beta=0.70
     Davidson diagonalization with overlap
     ethr =  5.91E-08,  avg # of iterations =  4.0

     total cpu time spent up to now is     2694.8 secs

     total energy              =  -10104.32745518 Ry
     Harris-Foulkes estimate   =  -10104.32746663 Ry
     estimated scf accuracy    <       0.00013015 Ry

     iteration # 10     ecut=    35.00 Ry     beta=0.70
     Davidson diagonalization with overlap
     ethr =  1.69E-08,  avg # of iterations =  1.0

     total cpu time spent up to now is     2865.1 secs

     total energy              =  -10104.32744599 Ry
     Harris-Foulkes estimate   =  -10104.32745882 Ry
     estimated scf accuracy    <       0.00006207 Ry

     iteration # 11     ecut=    35.00 Ry     beta=0.70
     Davidson diagonalization with overlap
     ethr =  8.08E-09,  avg # of iterations =  3.0

     total cpu time spent up to now is     3075.3 secs

     total energy              =  -10104.32745296 Ry
     Harris-Foulkes estimate   =  -10104.32745297 Ry
     estimated scf accuracy    <       0.00000020 Ry

     iteration # 12     ecut=    35.00 Ry     beta=0.70
     Davidson diagonalization with overlap
     ethr =  2.54E-11,  avg # of iterations = 10.2

     total cpu time spent up to now is     3605.7 secs

     total energy              =  -10104.32745430 Ry
     Harris-Foulkes estimate   =  -10104.32745431 Ry
     estimated scf accuracy    <       0.00000065 Ry

     iteration # 13     ecut=    35.00 Ry     beta=0.70
     Davidson diagonalization with overlap
     ethr =  2.54E-11,  avg # of iterations =  1.0

     total cpu time spent up to now is     3775.8 secs

     total energy              =  -10104.32745419 Ry
     Harris-Foulkes estimate   =  -10104.32745430 Ry
     estimated scf accuracy    <       0.00000054 Ry

     iteration # 14     ecut=    35.00 Ry     beta=0.70
     Davidson diagonalization with overlap
     ethr =  2.54E-11,  avg # of iterations =  3.8

     total cpu time spent up to now is     4025.5 secs

     End of self-consistent calculation

          k = 0.2500 0.2500 0.2500 ( 99252 PWs)   bands (ev):

    -3.4934  -3.3083  -3.2447  -3.1704  -3.0441  -3.0008  -2.9312  -2.8205
    -2.7272  -2.6505  -2.5997  -2.5498  -2.4480  -2.3929  -2.3345  -2.2702
    -2.2318  -2.2133  -2.0917  -2.0608  -1.9822  -1.9448  -1.8501  -1.7758
    -1.7509  -1.7152  -1.6840  -1.6383  -1.5987  -1.5251  -1.5023  -1.4441
    -1.4242  -1.4053  -1.2787  -1.2664  -1.2378  -1.1574  -1.1313  -1.0599
    -0.9567  -0.9221  -0.8972  -0.8715  -0.8013  -0.7690  -0.7296  -0.6906
    -0.6726  -0.5980  -0.5790  -0.5359  -0.5006  -0.4476  -0.4262  -0.3963
    -0.3446  -0.2969  -0.2620  -0.2317  -0.1823  -0.1634  -0.1091  -0.0546
    -0.0142   0.0213   0.0581   0.0863   0.1162   0.1607   0.1978   0.2405
     0.2755   0.3111   0.3448   0.4123   0.4215   0.4670   0.4942   0.5311
     0.5697   0.5974   0.6286   0.6859   0.7254   0.7462   0.7790   0.8266
     0.8425   0.8923   0.9320   0.9619   0.9975   1.0171   1.0742   1.0806
     1.1019   1.1323   1.1557   1.1932   1.2245   1.2385   1.2687   1.3098
     1.3413   1.3924   1.3960   1.4305   1.4598   1.4951   1.5239   1.5462
     1.5734   1.6088   1.6457   1.6628   1.7087   1.7486   1.7608   1.7910
     1.8225   1.8591   1.8942   1.9061   1.9375   1.9800   2.0109   2.0286
     2.0893   2.1064   2.1378   2.1862   2.1999   2.2094   2.2471   2.2939
     2.3364   2.3601   2.3901   2.3976   2.4163   2.4665   2.4806   2.5067
     2.5310   2.5584   2.5762   2.6062   2.6284   2.6505   2.6669   2.7096
     2.7275   2.7523   2.7912   2.8123   2.8264   2.8594   2.8688   2.9040
     2.9349   2.9481   2.9628   2.9830   3.0259   3.0394   3.0628   3.1032
     3.1122   3.1499   3.1951   3.2152   3.2319   3.2651   3.2906   3.3181
     3.3350   3.3566   3.3736   3.4124   3.4233   3.4589   3.4799   3.4943
     3.5415   3.5801   3.5956   3.6159   3.6530   3.6658   3.6850   3.6966
     3.7248   3.7440   3.7736   3.8099   3.8339   3.8628   3.8953   3.9179
     3.9401   3.9589   3.9853   4.0013   4.0310   4.0377   4.0700   4.0950
     4.1178   4.1514   4.1617   4.1911   4.2171   4.2263   4.2447   4.2742
     4.2949   4.3252   4.3408   4.3573   4.3887   4.4199   4.4255   4.4493
     4.4764   4.4881   4.5109   4.5219   4.5545   4.5712   4.5864   4.6114
     4.6358   4.6576   4.6834   4.7110   4.7324   4.7619   4.7884   4.8165
     4.8517   4.8797   4.8952   4.9035   4.9179   4.9399   4.9824   4.9971
     5.0020   5.0330   5.0542   5.0730   5.0977   5.1229   5.1373   5.1577
     5.1797   5.1980   5.2231   5.2340   5.2519   5.2660   5.2851   5.3112
     5.3235   5.3550   5.3581   5.3833   5.4141   5.4220   5.4430   5.4643
     5.4763   5.5138   5.5242   5.5483   5.5681   5.5932   5.6100   5.6218
     5.6480   5.6857   5.6935   5.7162   5.7447   5.7792   5.7994   5.8177
     5.8399   5.8582   5.8768   5.9059   5.9227   5.9464   5.9786   6.0033
     6.0274   6.0483   6.0615   6.0893   6.1168   6.1307   6.1612   6.1846
     6.1986   6.2235   6.2449   6.2587   6.2943   6.3160   6.3383   6.3592
     6.3795   6.4171   6.4225   6.4632   6.4780   6.4944   6.5352   6.5551
     6.5827   6.5881   6.6167   6.6270   6.6478   6.6646   6.6896   6.6960
     6.7291   6.7430   6.7659   6.7845   6.8058   6.8262   6.8490   6.8593
     6.8797   6.8955   6.9191   6.9437   6.9481   6.9859   6.9960   7.0105
     7.0339   7.0453   7.0715   7.0924   7.1079   7.1292   7.1470   7.1597
     7.1726   7.1993   7.2279   7.2429   7.2451   7.2691   7.2902   7.3067
     7.3198   7.3425   7.3674   7.3839   7.3973   7.4324   7.4438   7.4551
     7.4748   7.4909   7.5238   7.5299   7.5654   7.5820   7.6121   7.6456
     7.6495   7.6700   7.6842   7.7073   7.7115   7.7431   7.7569   7.7766
     7.7947   7.8084   7.8369   7.8661   7.8850   7.9061   7.9290   7.9485
     7.9761   7.9956   8.0189   8.0349   8.0499   8.0638   8.0885   8.1017
     8.1088   8.1607   8.1738   8.1856   8.2184   8.2250   8.2423   8.2578
     8.2779   8.2963   8.3213   8.3304   8.3567   8.3704   8.3816   8.3895
     8.4114   8.4481   8.4600   8.4797   8.5035   8.5217   8.5473   8.5674
     8.5763   8.5938   8.6121   8.6224   8.6411   8.6588   8.6739   8.6977
     8.7141   8.7279   8.7453   8.7686   8.7751   8.8085   8.8203   8.8389
     8.8655   8.8788   8.9073   8.9285   8.9433   8.9549   8.9785   8.9992
     9.0221   9.0400   9.0719   9.0821   9.1083   9.1131   9.1399   9.1562
     9.1688   9.1857   9.1953   9.2402   9.2536

          k =-0.2500-0.2500 0.2500 ( 99252 PWs)   bands (ev):

    -3.4952  -3.2929  -3.2615  -3.1600  -3.0363  -3.0182  -2.9356  -2.8375
    -2.7293  -2.6214  -2.5735  -2.5402  -2.4606  -2.4308  -2.3328  -2.2923
    -2.1978  -2.1657  -2.0963  -2.0426  -2.0084  -1.9714  -1.8679  -1.8518
    -1.7530  -1.7116  -1.6821  -1.6483  -1.5868  -1.5188  -1.4955  -1.4294
    -1.3955  -1.3303  -1.2805  -1.2449  -1.2171  -1.1380  -1.1175  -1.0371
    -0.9924  -0.9674  -0.9455  -0.8951  -0.8257  -0.7839  -0.7609  -0.6725
    -0.6595  -0.6313  -0.5700  -0.5364  -0.4969  -0.4526  -0.4161  -0.3591
    -0.3165  -0.2849  -0.2769  -0.2426  -0.1934  -0.1476  -0.1046  -0.0715
    -0.0319   0.0102   0.0387   0.0609   0.1247   0.1710   0.2286   0.2426
     0.3188   0.3308   0.3742   0.3958   0.4335   0.4719   0.5183   0.5433
     0.5765   0.6063   0.6339   0.6628   0.6893   0.7396   0.7903   0.8142
     0.8654   0.8831   0.8983   0.9498   0.9882   1.0115   1.0324   1.0681
     1.1231   1.1366   1.1893   1.2087   1.2328   1.2523   1.2787   1.3161
     1.3380   1.3575   1.4004   1.4104   1.4588   1.4786   1.5163   1.5376
     1.5657   1.6065   1.6236   1.6592   1.6798   1.7185   1.7750   1.7989
     1.8266   1.8753   1.9187   1.9303   1.9627   1.9749   1.9870   2.0344
     2.0565   2.1085   2.1461   2.1849   2.1995   2.2493   2.2773   2.2960
     2.3138   2.3464   2.3762   2.4126   2.4168   2.4379   2.4655   2.5081
     2.5363   2.5470   2.5873   2.6063   2.6427   2.6560   2.6900   2.6966
     2.7268   2.7594   2.7965   2.8303   2.8517   2.8746   2.8877   2.9179
     2.9340   2.9690   2.9874   3.0057   3.0382   3.0542   3.0690   3.0837
     3.1200   3.1573   3.1817   3.2113   3.2229   3.2587   3.2820   3.3062
     3.3304   3.3471   3.3804   3.4124   3.4324   3.4595   3.4751   3.5076
     3.5288   3.5529   3.5782   3.5860   3.6200   3.6483   3.6716   3.7004
     3.7286   3.7518   3.7767   3.7938   3.8181   3.8477   3.8650   3.9102
     3.9199   3.9335   3.9723   3.9928   4.0289   4.0489   4.0763   4.0871
     4.1208   4.1475   4.1724   4.1872   4.2165   4.2357   4.2598   4.2813
     4.2997   4.3169   4.3471   4.3655   4.3815   4.4004   4.4255   4.4353
     4.4632   4.5010   4.5151   4.5386   4.5646   4.5912   4.6071   4.6301
     4.6508   4.6595   4.6808   4.6935   4.7371   4.7734   4.7917   4.8200
     4.8497   4.8699   4.8943   4.9064   4.9187   4.9508   4.9819   4.9969
     5.0142   5.0235   5.0643   5.0700   5.0843   5.1298   5.1457   5.1572
     5.1742   5.1865   5.2118   5.2332   5.2562   5.2809   5.2926   5.3210
     5.3439   5.3589   5.3869   5.4000   5.4099   5.4365   5.4501   5.4603
     5.4781   5.5041   5.5492   5.5556   5.5767   5.5982   5.6308   5.6393
     5.6487   5.6755   5.6952   5.7245   5.7504   5.7722   5.7937   5.8092
     5.8334   5.8574   5.8752   5.9053   5.9289   5.9594   5.9747   6.0114
     6.0349   6.0504   6.0611   6.0821   6.1115   6.1406   6.1621   6.1867
     6.2035   6.2303   6.2502   6.2648   6.2974   6.3029   6.3273   6.3558
     6.3669   6.3926   6.4127   6.4551   6.4899   6.5048   6.5206   6.5284
     6.5490   6.5818   6.5946   6.6132   6.6427   6.6503   6.6737   6.7055
     6.7205   6.7348   6.7518   6.7672   6.7806   6.8076   6.8218   6.8507
     6.8623   6.8931   6.9066   6.9302   6.9445   6.9680   6.9796   7.0056
     7.0217   7.0398   7.0627   7.0860   7.1023   7.1167   7.1410   7.1587
     7.1937   7.2028   7.2153   7.2387   7.2488   7.2621   7.2924   7.3141
     7.3271   7.3455   7.3706   7.3974   7.4053   7.4317   7.4431   7.4621
     7.4845   7.5122   7.5256   7.5555   7.5900   7.6050   7.6220   7.6323
     7.6605   7.6822   7.6936   7.7225   7.7300   7.7564   7.7779   7.7894
     7.8111   7.8208   7.8466   7.8695   7.8939   7.9231   7.9362   7.9589
     7.9798   8.0022   8.0173   8.0342   8.0444   8.0832   8.0932   8.1224
     8.1367   8.1529   8.1712   8.1850   8.2042   8.2231   8.2428   8.2759
     8.2881   8.2917   8.3248   8.3287   8.3581   8.3625   8.3958   8.4090
     8.4154   8.4310   8.4426   8.4708   8.5017   8.5244   8.5316   8.5489
     8.5741   8.5907   8.5968   8.6166   8.6459   8.6543   8.6773   8.6956
     8.7208   8.7289   8.7484   8.7799   8.7886   8.8130   8.8293   8.8504
     8.8665   8.8807   8.9054   8.9139   8.9439   8.9696   8.9775   9.0049
     9.0252   9.0390   9.0580   9.0789   9.1106   9.1193   9.1300   9.1618
     9.1707   9.1941   9.2108   9.2296   9.2507

          k =-0.2500 0.2500-0.2500 ( 99252 PWs)   bands (ev):

    -3.4907  -3.3237  -3.2283  -3.1827  -3.0312  -2.9944  -2.9150  -2.8285
    -2.7435  -2.6969  -2.5708  -2.5213  -2.4839  -2.4007  -2.3306  -2.2561
    -2.2293  -2.1617  -2.0924  -2.0726  -1.9917  -1.9336  -1.8934  -1.7942
    -1.7524  -1.7027  -1.6895  -1.6270  -1.5826  -1.5231  -1.4952  -1.4441
    -1.4086  -1.3828  -1.3333  -1.2714  -1.2080  -1.1744  -1.1290  -1.0662
    -0.9975  -0.9533  -0.9023  -0.8681  -0.7889  -0.7565  -0.7192  -0.6780
    -0.6375  -0.5967  -0.5697  -0.5583  -0.4875  -0.4371  -0.4094  -0.3845
    -0.3537  -0.2941  -0.2661  -0.2111  -0.1921  -0.1297  -0.1064  -0.0511
    -0.0270  -0.0060   0.0334   0.0786   0.1208   0.1582   0.1924   0.2347
     0.2541   0.2986   0.3483   0.4014   0.4169   0.4385   0.4874   0.5195
     0.5498   0.6001   0.6389   0.6856   0.7181   0.7611   0.8179   0.8348
     0.8716   0.9008   0.9288   0.9652   0.9779   1.0315   1.0618   1.0939
     1.1242   1.1424   1.1799   1.2218   1.2320   1.2489   1.2812   1.3261
     1.3314   1.3648   1.3763   1.4305   1.4544   1.4898   1.5151   1.5243
     1.5550   1.5919   1.6175   1.6761   1.6996   1.7471   1.7685   1.8161
     1.8329   1.8697   1.8924   1.8991   1.9270   1.9670   1.9780   2.0557
     2.0723   2.0875   2.1256   2.1672   2.2197   2.2448   2.2780   2.3023
     2.3341   2.3457   2.3697   2.4032   2.4327   2.4575   2.4902   2.5011
     2.5320   2.5686   2.5739   2.6135   2.6438   2.6761   2.6953   2.7067
     2.7246   2.7422   2.7847   2.8153   2.8405   2.8648   2.8848   2.9042
     2.9268   2.9417   2.9541   2.9884   3.0161   3.0373   3.0510   3.0824
     3.1037   3.1446   3.1672   3.1960   3.2258   3.2426   3.2793   3.3046
     3.3319   3.3674   3.3754   3.4182   3.4288   3.4647   3.4823   3.5055
     3.5226   3.5480   3.5736   3.6106   3.6340   3.6571   3.6636   3.7134
     3.7370   3.7688   3.7938   3.8377   3.8537   3.8768   3.8932   3.9237
     3.9364   3.9578   3.9857   4.0082   4.0289   4.0519   4.0674   4.1132
     4.1334   4.1678   4.1868   4.1942   4.2189   4.2322   4.2604   4.2770
     4.2823   4.3041   4.3365   4.3769   4.3889   4.4022   4.4370   4.4476
     4.4644   4.4772   4.4971   4.5208   4.5442   4.5883   4.6116   4.6220
     4.6491   4.6648   4.6933   4.7153   4.7482   4.7525   4.7927   4.8150
     4.8372   4.8640   4.8953   4.9070   4.9366   4.9747   4.9921   5.0086
     5.0218   5.0348   5.0559   5.0810   5.0926   5.1283   5.1440   5.1555
     5.1714   5.1915   5.2032   5.2316   5.2534   5.2636   5.2713   5.2979
     5.3174   5.3370   5.3517   5.3594   5.3811   5.4090   5.4150   5.4399
     5.4651   5.4887   5.4953   5.5183   5.5551   5.5798   5.5989   5.6321
     5.6441   5.6647   5.6742   5.7168   5.7287   5.7572   5.7635   5.8087
     5.8205   5.8628   5.8966   5.9162   5.9378   5.9602   5.9996   6.0074
     6.0210   6.0454   6.0680   6.1023   6.1155   6.1285   6.1563   6.1812
     6.2129   6.2243   6.2437   6.2647   6.3015   6.3120   6.3694   6.3937
     6.4127   6.4265   6.4538   6.4736   6.5081   6.5383   6.5597   6.5689
     6.6024   6.6194   6.6259   6.6459   6.6671   6.6925   6.7021   6.7322
     6.7455   6.7629   6.7738   6.7913   6.8036   6.8291   6.8403   6.8659
     6.8832   6.9006   6.9176   6.9361   6.9432   6.9612   6.9719   6.9898
     7.0142   7.0326   7.0523   7.0596   7.0860   7.1097   7.1288   7.1382
     7.1754   7.2008   7.2177   7.2212   7.2448   7.2621   7.2682   7.2982
     7.3147   7.3380   7.3573   7.3723   7.4105   7.4334   7.4448   7.4662
     7.4862   7.5089   7.5115   7.5328   7.5506   7.5672   7.5847   7.6209
     7.6421   7.6522   7.6790   7.7056   7.7182   7.7555   7.7686   7.7957
     7.8170   7.8342   7.8509   7.8618   7.8842   7.9005   7.9394   7.9658
     7.9775   7.9863   8.0131   8.0367   8.0750   8.0860   8.0983   8.1130
     8.1230   8.1448   8.1879   8.1899   8.1969   8.2105   8.2370   8.2738
     8.2846   8.3011   8.3144   8.3439   8.3536   8.3747   8.3997   8.4143
     8.4229   8.4439   8.4543   8.4626   8.4790   8.4947   8.5134   8.5346
     8.5602   8.5784   8.5947   8.6172   8.6284   8.6447   8.6546   8.6703
     8.6877   8.7071   8.7312   8.7541   8.7653   8.7808   8.8195   8.8354
     8.8569   8.8775   8.8998   8.9237   8.9467   8.9593   8.9831   9.0041
     9.0307   9.0477   9.0730   9.0882   9.1225   9.1293   9.1579   9.1705
     9.1901   9.2123   9.2227   9.2419   9.2560

          k = 0.2500-0.2500-0.2500 ( 99252 PWs)   bands (ev):

    -3.4945  -3.2968  -3.2462  -3.1919  -3.0226  -2.9939  -2.9522  -2.8155
    -2.7300  -2.6636  -2.5795  -2.5164  -2.4490  -2.4131  -2.3517  -2.3122
    -2.2477  -2.1789  -2.0941  -2.0295  -1.9654  -1.9362  -1.8441  -1.8027
    -1.7662  -1.7407  -1.6656  -1.6136  -1.5774  -1.5455  -1.5288  -1.4901
    -1.4054  -1.3577  -1.2824  -1.2308  -1.2037  -1.1787  -1.1384  -1.0516
    -1.0291  -0.9222  -0.9154  -0.8808  -0.8219  -0.7794  -0.7185  -0.6749
    -0.6507  -0.6210  -0.5542  -0.5350  -0.4786  -0.4391  -0.4004  -0.3670
    -0.3320  -0.3196  -0.2651  -0.2186  -0.2087  -0.1688  -0.0956  -0.0722
    -0.0303   0.0141   0.0458   0.0974   0.1550   0.1719   0.1944   0.2226
     0.2838   0.2982   0.3268   0.3722   0.4363   0.4800   0.5077   0.5239
     0.5552   0.6034   0.6282   0.6426   0.7200   0.7521   0.7927   0.8176
     0.8819   0.9012   0.9338   0.9533   0.9840   1.0249   1.0529   1.0740
     1.1178   1.1347   1.1495   1.1847   1.2085   1.2607   1.2952   1.3071
     1.3308   1.3785   1.3809   1.4510   1.4739   1.4945   1.5287   1.5624
     1.5925   1.6107   1.6501   1.6893   1.7206   1.7439   1.7628   1.8227
     1.8363   1.8769   1.8950   1.9175   1.9372   1.9731   2.0000   2.0193
     2.0747   2.0904   2.1081   2.1387   2.1653   2.1923   2.2783   2.3032
     2.3160   2.3423   2.3651   2.3842   2.4392   2.4473   2.4792   2.4959
     2.5208   2.5672   2.5806   2.6047   2.6145   2.6459   2.6772   2.6915
     2.7361   2.7714   2.7900   2.8142   2.8393   2.8533   2.8837   2.9086
     2.9402   2.9581   2.9862   2.9998   3.0214   3.0318   3.0729   3.0943
     3.1243   3.1502   3.1662   3.2189   3.2350   3.2584   3.2877   3.3177
     3.3520   3.3770   3.3976   3.4200   3.4502   3.4691   3.4852   3.5167
     3.5350   3.5535   3.5833   3.6123   3.6429   3.6596   3.6844   3.7043
     3.7433   3.7492   3.7761   3.7820   3.8186   3.8447   3.8548   3.9126
     3.9325   3.9583   3.9998   4.0216   4.0385   4.0643   4.0808   4.1126
     4.1204   4.1524   4.1868   4.2015   4.2111   4.2280   4.2601   4.2650
     4.2832   4.3074   4.3403   4.3590   4.3841   4.4059   4.4279   4.4360
     4.4644   4.4812   4.5078   4.5367   4.5611   4.5843   4.6025   4.6280
     4.6373   4.6631   4.6908   4.7088   4.7256   4.7497   4.7718   4.8014
     4.8266   4.8523   4.8845   4.9032   4.9150   4.9349   4.9639   4.9799
     5.0013   5.0312   5.0402   5.0621   5.0897   5.1206   5.1407   5.1467
     5.1734   5.1830   5.2140   5.2184   5.2502   5.2710   5.2898   5.3058
     5.3356   5.3540   5.3678   5.3824   5.4172   5.4244   5.4331   5.4781
     5.4833   5.5117   5.5375   5.5469   5.5679   5.5795   5.6112   5.6319
     5.6599   5.6900   5.7080   5.7209   5.7617   5.7745   5.7926   5.8172
     5.8401   5.8639   5.8874   5.9284   5.9431   5.9624   5.9756   6.0205
     6.0392   6.0411   6.0662   6.1059   6.1299   6.1521   6.1600   6.2090
     6.2240   6.2330   6.2570   6.2862   6.2895   6.3043   6.3324   6.3732
     6.3896   6.4128   6.4414   6.4696   6.4806   6.4982   6.5048   6.5460
     6.5714   6.5793   6.6200   6.6462   6.6516   6.6716   6.6960   6.7138
     6.7260   6.7373   6.7588   6.7774   6.7949   6.8129   6.8372   6.8515
     6.8655   6.8800   6.9023   6.9157   6.9375   6.9428   6.9721   7.0008
     7.0163   7.0363   7.0510   7.0681   7.0853   7.0984   7.1109   7.1415
     7.1608   7.1791   7.2087   7.2152   7.2662   7.2809   7.3101   7.3204
     7.3423   7.3556   7.3741   7.4026   7.4344   7.4508   7.4679   7.4789
     7.4946   7.5059   7.5265   7.5490   7.5531   7.6009   7.6110   7.6172
     7.6500   7.6716   7.6979   7.7184   7.7340   7.7460   7.7631   7.7711
     7.7892   7.8134   7.8390   7.8692   7.8831   7.9088   7.9324   7.9449
     7.9627   7.9842   7.9986   8.0200   8.0454   8.0656   8.0984   8.1171
     8.1378   8.1457   8.1679   8.1823   8.2115   8.2277   8.2389   8.2645
     8.2904   8.3003   8.3227   8.3439   8.3517   8.3690   8.3777   8.4040
     8.4277   8.4492   8.4584   8.4761   8.4951   8.5053   8.5181   8.5439
     8.5599   8.5784   8.5967   8.6077   8.6209   8.6400   8.6604   8.6818
     8.7125   8.7406   8.7551   8.7633   8.7738   8.7942   8.8162   8.8400
     8.8642   8.8907   8.9037   8.9244   8.9364   8.9676   8.9830   9.0082
     9.0353   9.0589   9.0842   9.0918   9.1120   9.1189   9.1484   9.1599
     9.1800   9.1926   9.2114   9.2313   9.2532

     the Fermi energy is     7.7955 ev

!    total energy              =  -10104.32745424 Ry
     Harris-Foulkes estimate   =  -10104.32745425 Ry
     estimated scf accuracy    <          2.5E-09 Ry

     total all-electron energy =   -124316.879592 Ry

     The total energy is the sum of the following terms:

     one-electron contribution =     760.59844681 Ry
     hartree contribution      =      27.73053497 Ry
     xc contribution           =    -783.20778830 Ry
     ewald contribution        =   -1340.52545322 Ry
     one-center paw contrib.   =   -8768.91753808 Ry
     smearing contrib. (-TS)   =      -0.00565643 Ry

     convergence has been achieved in  14 iterations

     Forces acting on atoms (Ry/au):

     atom    1 type  1   force =     0.03239662   -0.00524534   -0.06110457
     atom    2 type  1   force =    -0.06712750    0.11450802   -0.00829393
     atom    3 type  1   force =    -0.07393909   -0.00759674    0.09638203
     atom    4 type  1   force =     0.03890681   -0.01605071   -0.01578270
     atom    5 type  1   force =     0.13700532   -0.03805627   -0.07529565
     atom    6 type  1   force =     0.06877041   -0.03530955    0.04328538
     atom    7 type  1   force =    -0.10863323    0.01997836   -0.07946208
     atom    8 type  1   force =     0.00365801    0.11514862    0.14417163
     atom    9 type  1   force =    -0.00220148    0.02803815   -0.00474984
     atom   10 type  1   force =    -0.02296204    0.02513335    0.01136358
     atom   11 type  1   force =    -0.23626888    0.03089656    0.19564516
     atom   12 type  1   force =     0.11663016   -0.01347351   -0.03537968
     atom   13 type  1   force =    -0.26004553    0.22885629   -0.07226503
     atom   14 type  1   force =    -0.08867393   -0.04436248   -0.01768240
     atom   15 type  1   force =     0.02824408    0.13725406    0.12268954
     atom   16 type  1   force =     0.02520698    0.10690551   -0.13276811
     atom   17 type  1   force =     0.00277583   -0.08637111    0.14630405
     atom   18 type  1   force =    -0.01275572   -0.10512554   -0.06981892
     atom   19 type  1   force =     0.07066849   -0.07216204   -0.06618834
     atom   20 type  1   force =     0.03395888    0.05114582   -0.08055174
     atom   21 type  1   force =    -0.04213905   -0.01553116    0.02016122
     atom   22 type  1   force =    -0.01872019    0.05927279   -0.00439205
     atom   23 type  1   force =    -0.10143304   -0.00599907    0.08972992
     atom   24 type  1   force =    -0.04681067    0.02197213   -0.07772584
     atom   25 type  1   force =    -0.03480107   -0.04162673    0.01988307
     atom   26 type  1   force =     0.09926868    0.05584733    0.00595480
     atom   27 type  1   force =    -0.19165932   -0.03843072    0.12646939
     atom   28 type  1   force =    -0.01555832   -0.07525799    0.09993916
     atom   29 type  1   force =    -0.05792817   -0.00124946   -0.05702241
     atom   30 type  1   force =     0.05401011   -0.01715842   -0.09487141
     atom   31 type  1   force =     0.13515181   -0.08042735    0.03093660
     atom   32 type  1   force =    -0.19351037    0.00639305   -0.10660656
     atom   33 type  1   force =    -0.13083843   -0.01088786    0.05837836
     atom   34 type  1   force =     0.13521673    0.02458079    0.14470617
     atom   35 type  1   force =    -0.13841967    0.13356108    0.09802031
     atom   36 type  1   force =     0.01070371   -0.00352914    0.00069857
     atom   37 type  1   force =    -0.10939704   -0.01285949    0.14602736
     atom   38 type  1   force =     0.00802568   -0.16954385    0.04682914
     atom   39 type  1   force =    -0.04627891    0.00663934   -0.01447240
     atom   40 type  1   force =    -0.00517681   -0.07141287    0.02973569
     atom   41 type  1   force =     0.01213765    0.07638203   -0.09944393
     atom   42 type  1   force =    -0.05742585    0.01978476    0.01791454
     atom   43 type  1   force =    -0.02327028   -0.02130978    0.00655439
     atom   44 type  1   force =     0.02996764    0.01303244    0.02587493
     atom   45 type  1   force =    -0.08883779    0.06389946   -0.01217572
     atom   46 type  1   force =     0.03481406   -0.13062642   -0.03515025
     atom   47 type  1   force =     0.03620909    0.06619228    0.08094024
     atom   48 type  1   force =     0.02728555   -0.01153963   -0.03152838
     atom   49 type  1   force =    -0.03472121   -0.04390358    0.04338378
     atom   50 type  1   force =     0.00357830    0.03609828    0.02069673
     atom   51 type  1   force =     0.07477177   -0.02956754   -0.13974490
     atom   52 type  1   force =     0.01046780   -0.00133004    0.01011366
     atom   53 type  1   force =    -0.09524582    0.05733368   -0.04848582
     atom   54 type  1   force =    -0.02794918   -0.01128793   -0.03653631
     atom   55 type  1   force =    -0.08003868    0.01108823    0.15874034
     atom   56 type  1   force =     0.06753508    0.02063260    0.00209219
     atom   57 type  1   force =     0.03858791   -0.04459100    0.03236370
     atom   58 type  1   force =    -0.07377355    0.00469735    0.10095893
     atom   59 type  1   force =    -0.03288917    0.01759878   -0.02300235
     atom   60 type  1   force =     0.00035059    0.02594874    0.05844425
     atom   61 type  1   force =    -0.27315925    0.01951310   -0.27825456
     atom   62 type  1   force =     0.23172758   -0.31871761   -0.08779011
     atom   63 type  1   force =     0.23218896   -0.00341035    0.25520004
     atom   64 type  1   force =     0.07866959    0.08681466    0.00215396
     atom   65 type  1   force =    -0.06607777    0.00296028   -0.03683985
     atom   66 type  1   force =     0.01545116    0.09542137    0.05425319
     atom   67 type  1   force =     0.04277284    0.06808086   -0.06533613
     atom   68 type  1   force =    -0.00053760   -0.01440792    0.01318264
     atom   69 type  1   force =     0.14463896    0.05762267   -0.26911757
     atom   70 type  1   force =     0.00148515   -0.03584324   -0.02675113
     atom   71 type  1   force =     0.08472972    0.01913490    0.01035394
     atom   72 type  1   force =     0.00539764   -0.09675683   -0.10795463
     atom   73 type  1   force =    -0.05605502   -0.00331083   -0.00046172
     atom   74 type  1   force =    -0.02455841    0.06499999    0.00950550
     atom   75 type  1   force =     0.06168108   -0.00492348    0.07461470
     atom   76 type  1   force =     0.03420656   -0.01004535    0.06392387
     atom   77 type  1   force =    -0.04624964   -0.04152884   -0.01045279
     atom   78 type  1   force =     0.04635116    0.02926567   -0.00677537
     atom   79 type  1   force =    -0.00140134   -0.03008316    0.02627638
     atom   80 type  1   force =     0.12104788   -0.15351932    0.10725413
     atom   81 type  1   force =     0.00732888   -0.00848728   -0.13793815
     atom   82 type  1   force =    -0.03269837    0.06751763    0.10730563
     atom   83 type  1   force =     0.08428000   -0.01956755    0.05467057
     atom   84 type  1   force =    -0.02881864   -0.01852909    0.00510606
     atom   85 type  1   force =     0.14317384   -0.06772543   -0.23194338
     atom   86 type  1   force =     0.00269867   -0.00713497    0.01583713
     atom   87 type  1   force =    -0.01816488    0.05078462    0.00392266
     atom   88 type  1   force =     0.02227524    0.10177664    0.09721042
     atom   89 type  1   force =     0.05306968    0.16974253    0.09098339
     atom   90 type  1   force =    -0.05438634    0.05001129    0.01607236
     atom   91 type  1   force =     0.06705667   -0.10683521   -0.07446661
     atom   92 type  1   force =    -0.12389128    0.05293582   -0.07384138
     atom   93 type  1   force =     0.05374014    0.08507247   -0.08377803
     atom   94 type  1   force =     0.04838897    0.05459498    0.13136817
     atom   95 type  1   force =    -0.04842551   -0.07180354   -0.04534292
     atom   96 type  1   force =     0.02784249   -0.04547902   -0.07137247
     atom   97 type  1   force =    -0.03386906    0.01467871    0.10308154
     atom   98 type  1   force =    -0.11876025    0.04004210    0.05127546
     atom   99 type  1   force =     0.05697788   -0.00485407   -0.00242834
     atom  100 type  1   force =    -0.07888501    0.01938028   -0.10967472
     atom  101 type  1   force =    -0.01100796   -0.01013380   -0.04139165
     atom  102 type  1   force =     0.13899975   -0.05003895    0.08804501
     atom  103 type  1   force =     0.05191762    0.01272036    0.02985782
     atom  104 type  1   force =     0.03701949   -0.01627912    0.00038763
     atom  105 type  1   force =     0.05969004    0.00414474   -0.04238897
     atom  106 type  1   force =    -0.00772547   -0.00250329    0.03034554
     atom  107 type  1   force =    -0.03135515    0.02893420   -0.05228095
     atom  108 type  1   force =     0.01212427   -0.05742465   -0.04439847
     atom  109 type  1   force =     0.00205449   -0.06946149   -0.05453671
     atom  110 type  1   force =    -0.00222125   -0.02149361    0.05608234
     atom  111 type  1   force =     0.15144865   -0.06394961   -0.02542497
     atom  112 type  1   force =    -0.05170726    0.12487382    0.00368299
     atom  113 type  1   force =     0.19817137    0.03002688   -0.10685811
     atom  114 type  1   force =    -0.02272647   -0.09787284   -0.15924418
     atom  115 type  1   force =    -0.19402096   -0.18824778   -0.01022857
     atom  116 type  1   force =     0.10485624   -0.00855036   -0.07116409
     atom  117 type  1   force =    -0.05875360    0.05258563    0.02618732
     atom  118 type  1   force =     0.02070333   -0.01324996   -0.02629379
     atom  119 type  1   force =    -0.01306364   -0.08788106   -0.07912167
     atom  120 type  1   force =     0.00081591   -0.11211720    0.05577478
     atom  121 type  1   force =     0.06081544    0.04794769   -0.01313738
     atom  122 type  1   force =     0.00171963    0.07370471    0.09491749
     atom  123 type  1   force =    -0.04178368    0.03061030   -0.07999742
     atom  124 type  1   force =     0.01614212   -0.03388772   -0.02670695
     atom  125 type  1   force =     0.02279344   -0.01117525    0.06023052
     atom  126 type  1   force =    -0.05960658    0.01856162   -0.01708229
     atom  127 type  1   force =    -0.04120617    0.05284594   -0.01456641
     atom  128 type  1   force =    -0.02381950    0.01008335    0.00463376
     atom  129 type  1   force =    -0.20196009    0.03040247   -0.25889018
     atom  130 type  1   force =    -0.22453641   -0.09366076    0.15342434
     atom  131 type  1   force =     0.15987341   -0.01339819    0.28384616
     atom  132 type  1   force =     0.08369335    0.05536054    0.13662532
     atom  133 type  1   force =    -0.07040806    0.01716676   -0.06880567
     atom  134 type  1   force =    -0.03566625    0.03831170    0.00562580
     atom  135 type  1   force =     0.06934308    0.04894421   -0.00090700
     atom  136 type  1   force =     0.03855884    0.07123736   -0.08346359
     atom  137 type  1   force =    -0.00078367   -0.08152118    0.09377348
     atom  138 type  1   force =    -0.11494087    0.01745613    0.09284358
     atom  139 type  1   force =     0.05822016   -0.02096893   -0.01834599
     atom  140 type  1   force =    -0.07778981   -0.02999487   -0.04641430
     atom  141 type  1   force =     0.00426126    0.04121941    0.04421869
     atom  142 type  1   force =     0.01430983   -0.03771999    0.03384489
     atom  143 type  1   force =    -0.06953510    0.05047139    0.06176336
     atom  144 type  1   force =     0.04726042   -0.02536805   -0.04884077
     atom  145 type  1   force =    -0.07517758   -0.00605277    0.04883278
     atom  146 type  1   force =    -0.00124668    0.06435258    0.00099655
     atom  147 type  1   force =     0.00024036    0.01301308    0.05540698
     atom  148 type  1   force =    -0.05014423   -0.07873936    0.00939020
     atom  149 type  1   force =    -0.06028398   -0.08080896   -0.04724503
     atom  150 type  1   force =     0.07164833    0.00442125    0.01685346
     atom  151 type  1   force =     0.24084944   -0.22043183    0.04415778
     atom  152 type  1   force =    -0.25565531    0.23597011    0.01721819
     atom  153 type  1   force =     0.07322868   -0.06488221    0.06022772
     atom  154 type  1   force =    -0.00348213   -0.12792281    0.09520667
     atom  155 type  1   force =     0.03319748    0.04352440   -0.07032899
     atom  156 type  1   force =    -0.10464760   -0.04565347   -0.15003333
     atom  157 type  1   force =    -0.13301088   -0.02847863    0.09718212
     atom  158 type  1   force =     0.19189349    0.04979487    0.10831687
     atom  159 type  1   force =    -0.00364455    0.00874207   -0.08643779
     atom  160 type  1   force =     0.07979707    0.02621764   -0.04196708
     atom  161 type  1   force =     0.02579784   -0.01813216   -0.06991306
     atom  162 type  1   force =    -0.06691271   -0.01077942    0.08472318
     atom  163 type  1   force =    -0.02144273    0.00056475   -0.17525508
     atom  164 type  1   force =     0.02266683    0.07089507   -0.01014508
     atom  165 type  1   force =    -0.17287094   -0.13703482    0.09809747
     atom  166 type  1   force =     0.07445164    0.25709476    0.06233347
     atom  167 type  1   force =    -0.03031759    0.02169391   -0.13780195
     atom  168 type  1   force =    -0.01395897   -0.08778291   -0.06446351
     atom  169 type  1   force =    -0.11900496    0.06451885    0.02601205
     atom  170 type  1   force =     0.03863664   -0.11463572    0.14677010
     atom  171 type  1   force =     0.12776358   -0.06634743   -0.01159850
     atom  172 type  1   force =    -0.11566149    0.04815850   -0.01735665
     atom  173 type  1   force =    -0.02173026    0.06809128    0.03718228
     atom  174 type  1   force =    -0.03721783   -0.01230289    0.00905277
     atom  175 type  1   force =    -0.00733564   -0.03789507   -0.01528656
     atom  176 type  1   force =     0.10502408   -0.04797810   -0.10050901
     atom  177 type  1   force =     0.01449947   -0.00447858    0.02141032
     atom  178 type  1   force =    -0.04676914   -0.02218939   -0.14009847
     atom  179 type  1   force =    -0.04716800   -0.14011775    0.08093819
     atom  180 type  1   force =     0.20273327    0.16293240   -0.00308708
     atom  181 type  1   force =    -0.03513224   -0.05427968   -0.01640655
     atom  182 type  1   force =     0.03378276    0.05008970    0.03358460
     atom  183 type  1   force =     0.38424634    0.11326985   -0.43868782
     atom  184 type  1   force =    -0.03306776    0.01405794   -0.01996585
     atom  185 type  1   force =    -0.42137339    0.04969032    0.40954896
     atom  186 type  1   force =    -0.07905656   -0.01489664    0.01256027
     atom  187 type  1   force =     0.00657939    0.08371177    0.00834306
     atom  188 type  1   force =    -0.02062077   -0.05702719   -0.02065340
     atom  189 type  1   force =     0.09731790   -0.01905641    0.05275223
     atom  190 type  1   force =    -0.24117329   -0.07984025   -0.23773558
     atom  191 type  1   force =    -0.12767249    0.02687260    0.03672357
     atom  192 type  1   force =     0.01530552    0.02653505   -0.00844406
     atom  193 type  1   force =     0.11857842    0.07712955   -0.03549664
     atom  194 type  1   force =    -0.09161782    0.04351642    0.08872717
     atom  195 type  1   force =    -0.08293563    0.01129927    0.03740391
     atom  196 type  1   force =    -0.00049943   -0.07297724    0.05061771
     atom  197 type  1   force =     0.02269029   -0.01812798    0.00916266
     atom  198 type  1   force =     0.01056344   -0.03715293    0.06734819
     atom  199 type  1   force =    -0.01013130   -0.07484148   -0.01676676
     atom  200 type  1   force =     0.08066529    0.04095672   -0.12243455
     atom  201 type  1   force =     0.02620740    0.04798967    0.04885690
     atom  202 type  1   force =    -0.03468771   -0.01989694    0.04784882
     atom  203 type  1   force =    -0.04289567    0.03429753   -0.06060640
     atom  204 type  1   force =     0.04488876   -0.05701981    0.00347235
     atom  205 type  1   force =     0.04991342    0.15333814    0.05011009
     atom  206 type  1   force =     0.05931677   -0.19989976   -0.13240784
     atom  207 type  1   force =    -0.00099067   -0.08640733    0.00588273
     atom  208 type  1   force =     0.15333437   -0.00674554   -0.18152981
     atom  209 type  1   force =     0.09525015    0.12965059   -0.06416356
     atom  210 type  1   force =     0.02710279   -0.07601995    0.04768432
     atom  211 type  1   force =     0.00517319    0.06073277   -0.04994721
     atom  212 type  1   force =     0.04211925   -0.01584593    0.03103270
     atom  213 type  1   force =    -0.00063234   -0.01718159   -0.01496046
     atom  214 type  1   force =    -0.00550155    0.04170069   -0.05942422
     atom  215 type  1   force =    -0.03422888    0.00507642    0.05199657
     atom  216 type  1   force =     0.05572030   -0.09593606   -0.12134159
     atom  217 type  1   force =    -0.04071306   -0.03774105   -0.08967269
     atom  218 type  1   force =     0.18242546   -0.08749147   -0.15903640
     atom  219 type  1   force =     0.17479608   -0.01879615   -0.13496846
     atom  220 type  1   force =    -0.18712490   -0.01289606    0.15609354
     atom  221 type  1   force =    -0.21711865    0.08425686    0.10020050
     atom  222 type  1   force =     0.02535723    0.03181598    0.04498945
     atom  223 type  1   force =     0.04752018    0.14110895    0.16623907
     atom  224 type  1   force =     0.01236433    0.03814684   -0.03151988
     atom  225 type  1   force =    -0.03136049    0.02723047    0.01068641
     atom  226 type  1   force =    -0.02331505    0.01540295    0.03940014
     atom  227 type  1   force =     0.02813002   -0.01328902    0.03142874
     atom  228 type  1   force =    -0.00814548   -0.03617492    0.03565878
     atom  229 type  1   force =     0.14231231   -0.05301908    0.07427392
     atom  230 type  1   force =     0.02916850    0.01714305   -0.05633534
     atom  231 type  1   force =    -0.01633076    0.02083500    0.03432499
     atom  232 type  1   force =    -0.02694173   -0.05185595    0.04800661
     atom  233 type  1   force =     0.01797270    0.13741616    0.06968530
     atom  234 type  1   force =     0.01028068   -0.02476074   -0.00681681
     atom  235 type  1   force =     0.07408248    0.11822065    0.06751795
     atom  236 type  1   force =     0.04109456   -0.01758376   -0.02483247
     atom  237 type  1   force =    -0.03359300   -0.04443116   -0.00587071
     atom  238 type  1   force =     0.04152530   -0.00582793    0.00171456
     atom  239 type  1   force =     0.00482914    0.02955848   -0.07777597
     atom  240 type  1   force =     0.10691651   -0.07985345   -0.02608518
     atom  241 type  1   force =    -0.01538521    0.00538652   -0.01293807
     atom  242 type  1   force =     0.00760767    0.27335144    0.25244167
     atom  243 type  1   force =    -0.09911089   -0.06498497   -0.04881976
     atom  244 type  1   force =    -0.02147937    0.00406041   -0.06122324
     atom  245 type  1   force =     0.00567748    0.02080274   -0.04229585
     atom  246 type  1   force =     0.05310524    0.01577190    0.07924585
     atom  247 type  1   force =     0.01804556   -0.00516504   -0.03968072
     atom  248 type  1   force =     0.03155392   -0.02939950   -0.03779938
     atom  249 type  1   force =     0.04430246   -0.03812471    0.04257246
     atom  250 type  1   force =     0.03610648    0.05081674    0.01731732
     atom  251 type  1   force =    -0.12558502   -0.04618867    0.00598124
     atom  252 type  1   force =    -0.01713785   -0.09585682   -0.09337383
     atom  253 type  1   force =     0.01859096    0.03962184   -0.08615790
     atom  254 type  1   force =    -0.00894091   -0.02546296    0.07780658
     atom  255 type  1   force =     0.04791916   -0.21785375   -0.27406137
     atom  256 type  1   force =     0.21102427    0.02661211    0.20867233

     Total force =     2.441372     Total SCF correction =     0.000058


     entering subroutine stress ...

          total   stress  (Ry/bohr**3)                   (kbar)     P=  124.60
   0.00086884  -0.00005213  -0.00003584        127.81     -7.67     -5.27
  -0.00005213   0.00083144   0.00005320         -7.67    122.31      7.83
  -0.00003584   0.00005320   0.00084084         -5.27      7.83    123.69


     Writing output data file c913a746cee.save
 
     init_run     :    151.08s CPU    155.81s WALL (       1 calls)
     electrons    :   3776.98s CPU   3868.89s WALL (       1 calls)
     forces       :     70.93s CPU     71.22s WALL (       1 calls)
     stress       :    353.11s CPU    353.97s WALL (       1 calls)

     Called by init_run:
     wfcinit      :    138.57s CPU    142.79s WALL (       1 calls)
     potinit      :      1.31s CPU      1.46s WALL (       1 calls)

     Called by electrons:
     c_bands      :   3263.76s CPU   3338.24s WALL (      14 calls)
     sum_band     :    363.05s CPU    375.94s WALL (      14 calls)
     v_of_rho     :      3.44s CPU      4.49s WALL (      15 calls)
     newd         :    118.25s CPU    118.90s WALL (      15 calls)
     mix_rho      :      8.42s CPU      9.73s WALL (      14 calls)

     Called by c_bands:
     init_us_2    :      5.01s CPU      5.08s WALL (     124 calls)
     cegterg      :   3244.30s CPU   3318.42s WALL (      56 calls)

     Called by *egterg:
     h_psi        :   1246.92s CPU   1315.19s WALL (     324 calls)
     s_psi        :    203.74s CPU    204.81s WALL (     324 calls)
     g_psi        :      2.76s CPU      2.76s WALL (     264 calls)
     cdiaghg      :    752.73s CPU    753.92s WALL (     320 calls)

     Called by h_psi:
     add_vuspsi   :    204.76s CPU    205.79s WALL (     324 calls)

     General routines
     calbec       :    741.38s CPU    742.53s WALL (     388 calls)
     fft          :     97.46s CPU     99.85s WALL (     261 calls)
     ffts         :      2.02s CPU      3.17s WALL (     198 calls)
     fftw         :    630.33s CPU    708.88s WALL (  175308 calls)
     interpolate  :      1.16s CPU      1.55s WALL (      29 calls)
     davcio       :      0.00s CPU      2.35s WALL (       4 calls)
 
     Parallel routines
     fft_scatter  :    604.27s CPU    657.26s WALL (  175767 calls)
 
     PAW routines
     PAW_pot      :     13.80s CPU     14.09s WALL (      15 calls)
     PAW_ddot     :      6.14s CPU      6.20s WALL (     346 calls)
 
     PWSCF        :     1h12m CPU        1h14m WALL

 
   This run was terminated on:   5: 9:10  15Oct2013            

=------------------------------------------------------------------------------=
   JOB DONE.
=------------------------------------------------------------------------------=
