
     Program PWSCF v.5.0.2 (svn rev. 9656) starts on 15Jul2014 at 12:26:35 

     This program is part of the open-source Quantum ESPRESSO suite
     for quantum simulation of materials; please cite
         "P. Giannozzi et al., J. Phys.:Condens. Matter 21 395502 (2009);
          URL http://www.quantum-espresso.org", 
     in publications or presentations arising from this work. More details at
     http://www.quantum-espresso.org/quote.php

     Parallel version (MPI & OpenMP), running on     264 processor cores
     Number of MPI processes:               264
     Threads/MPI process:                     1
     R & G space division:  proc/nbgrp/npool/nimage =     264

     Current dimensions of program PWSCF are:
     Max number of different atomic species (ntypx) = 10
     Max number of k-points (npk) =  40000
     Max angular momentum in pseudopotentials (lmaxx) =  3
     Waiting for input...
     Reading input from standard input
Warning: card &IONS ignored
Warning: card ION_DYNAMICS='BFGS', ignored
Warning: card / ignored
Warning: card &CELL ignored
Warning: card CELL_DYNAMICS='BFGS', ignored
Warning: card PRESS = 0.0, ignored
Warning: card CELL_FACTOR = 2.0, ignored
Warning: card / ignored
               file Pd.pbe-spn-kjpaw_psl.1.0.0.UPF: wavefunction(s)  4S 5S 4D renormalized

     gamma-point specific algorithms are used

     Subspace diagonalization in iterative solution of the eigenvalue problem:
     scalapack distributed-memory algorithm (size of sub-group: 11* 11 procs)

 
     Parallelization info
     --------------------
     sticks:   dense  smooth     PW     G-vecs:    dense   smooth      PW
     Min          77      77     29                 8442     8442    2122
     Max          80      80     32                 8462     8462    2156
     Sum       20673   20673   8277              2231883  2231883  564587
     Tot       10337   10337   4139
 


     bravais-lattice index     =           14
     lattice parameter (alat)  =      29.4040  a.u.
     unit-cell volume          =   25422.5577 (a.u.)^3
     number of atoms/cell      =          256
     number of atomic types    =            1
     number of electrons       =      4608.00
     number of Kohn-Sham states=         3226
     kinetic-energy cutoff     =     120.0000  Ry
     charge density cutoff     =     300.0000  Ry
     convergence threshold     =      1.0E-07
     mixing beta               =       0.7000
     number of iterations used =            8  TF        mixing
     Exchange-correlation      =  SLA  PW   PBX  PBC ( 1 4 3 4 0)
     EXX-fraction              =        0.00

     celldm(1)=  29.404000  celldm(2)=   1.000000  celldm(3)=   1.000000
     celldm(4)=   0.000000  celldm(5)=   0.000000  celldm(6)=   0.000000

     crystal axes: (cart. coord. in units of alat)
               a(1) = (   1.000000   0.000000   0.000000 )  
               a(2) = (   0.000000   1.000000   0.000000 )  
               a(3) = (   0.000000   0.000000   1.000000 )  

     reciprocal axes: (cart. coord. in units 2 pi/alat)
               b(1) = (  1.000000  0.000000  0.000000 )  
               b(2) = (  0.000000  1.000000  0.000000 )  
               b(3) = (  0.000000  0.000000  1.000000 )  


     PseudoPot. # 1 for Pd read from file:
     /work/e337/e337/benp/pseudopotentials/Pd.pbe-spn-kjpaw_psl.1.0.0.UPF
     MD5 check sum: b3359a045cb2e9ccc68ee3e793f79c75
     Pseudo is Projector augmented-wave + core cor, Zval = 18.0
     Generated using "atomic" code by A. Dal Corso  v.5.1
     Shape of augmentation charge: PSQ
     Using radial grid of 1235 points,  6 beta functions with: 
                l(1) =   0
                l(2) =   0
                l(3) =   1
                l(4) =   1
                l(5) =   2
                l(6) =   2
     Q(r) pseudized with 0 coefficients 


     atomic species   valence    mass     pseudopotential
        Pd            18.00   106.42000     Pd( 1.00)

     No symmetry found



   Cartesian axes

     site n.     atom                  positions (alat units)
         1           Pd  tau(   1) = (  -0.0001079  -0.0002202  -0.0000087  )
         2           Pd  tau(   2) = (   0.1240811   0.1233250  -0.0001434  )
         3           Pd  tau(   3) = (   0.1241834  -0.0024831   0.1269996  )
         4           Pd  tau(   4) = (  -0.0009269   0.1250182   0.1250466  )
         5           Pd  tau(   5) = (  -0.0000183  -0.0000842   0.2500185  )
         6           Pd  tau(   6) = (   0.1248045   0.1244148   0.2498568  )
         7           Pd  tau(   7) = (   0.1249121   0.0000185   0.3750202  )
         8           Pd  tau(   8) = (  -0.0022333   0.1249650   0.3729960  )
         9           Pd  tau(   9) = (  -0.0000481   0.0000503   0.5024982  )
        10           Pd  tau(  10) = (   0.1251335   0.1245864   0.5009032  )
        11           Pd  tau(  11) = (   0.1245501  -0.0019048   0.6238328  )
        12           Pd  tau(  12) = (  -0.0024500   0.1273487   0.6227212  )
        13           Pd  tau(  13) = (   0.0001868  -0.0000450   0.7499752  )
        14           Pd  tau(  14) = (   0.1226163   0.1231436   0.7500192  )
        15           Pd  tau(  15) = (   0.1248358   0.0001139   0.8754626  )
        16           Pd  tau(  16) = (   0.0013094   0.1256462   0.8773686  )
        17           Pd  tau(  17) = (   0.0024613   0.2507204  -0.0000088  )
        18           Pd  tau(  18) = (   0.1250783   0.3744917  -0.0000084  )
        19           Pd  tau(  19) = (   0.1269873   0.2499815   0.1239876  )
        20           Pd  tau(  20) = (  -0.0024255   0.3774066   0.1249679  )
        21           Pd  tau(  21) = (  -0.0005726   0.2505403   0.2519611  )
        22           Pd  tau(  22) = (   0.1249269   0.3736259   0.2475558  )
        23           Pd  tau(  23) = (   0.1225056   0.2523809   0.3732650  )
        24           Pd  tau(  24) = (   0.0003499   0.3725718   0.3749909  )
        25           Pd  tau(  25) = (  -0.0024300   0.2510519   0.5024863  )
        26           Pd  tau(  26) = (   0.1253013   0.3750730   0.4976100  )
        27           Pd  tau(  27) = (   0.1259331   0.2498153   0.6250849  )
        28           Pd  tau(  28) = (   0.0000202   0.3729440   0.6259695  )
        29           Pd  tau(  29) = (  -0.0003080   0.2499916   0.7509391  )
        30           Pd  tau(  30) = (   0.1251244   0.3737350   0.7476689  )
        31           Pd  tau(  31) = (   0.1249817   0.2494141   0.8748784  )
        32           Pd  tau(  32) = (   0.0000410   0.3749506   0.8770713  )
        33           Pd  tau(  33) = (   0.0000270   0.4991908   0.0018127  )
        34           Pd  tau(  34) = (   0.1249798   0.6261404   0.0002337  )
        35           Pd  tau(  35) = (   0.1252380   0.4975263   0.1239094  )
        36           Pd  tau(  36) = (   0.0024942   0.6247221   0.1225144  )
        37           Pd  tau(  37) = (   0.0000185   0.4982682   0.2516561  )
        38           Pd  tau(  38) = (   0.1250184   0.6250196   0.2500190  )
        39           Pd  tau(  39) = (   0.1251301   0.4982860   0.3774652  )
        40           Pd  tau(  40) = (   0.0003213   0.6254637   0.3750247  )
        41           Pd  tau(  41) = (   0.0016049   0.4984904   0.4999906  )
        42           Pd  tau(  42) = (   0.1230745   0.6247970   0.5000474  )
        43           Pd  tau(  43) = (   0.1251647   0.4997712   0.6262212  )
        44           Pd  tau(  44) = (   0.0000302   0.6249594   0.6245101  )
        45           Pd  tau(  45) = (  -0.0000738   0.5021461   0.7514793  )
        46           Pd  tau(  46) = (   0.1246836   0.6259204   0.7500908  )
        47           Pd  tau(  47) = (   0.1241071   0.5000255   0.8726728  )
        48           Pd  tau(  48) = (   0.0000836   0.6251911   0.8759183  )
        49           Pd  tau(  49) = (   0.0003815   0.7500084   0.0023135  )
        50           Pd  tau(  50) = (   0.1257041   0.8774626   0.0018796  )
        51           Pd  tau(  51) = (   0.1267729   0.7502718   0.1274996  )
        52           Pd  tau(  52) = (   0.0008349   0.8749818   0.1225046  )
        53           Pd  tau(  53) = (   0.0000210   0.7486314   0.2509735  )
        54           Pd  tau(  54) = (   0.1249910   0.8725732   0.2475026  )
        55           Pd  tau(  55) = (   0.1274027   0.7500218   0.3747963  )
        56           Pd  tau(  56) = (  -0.0005757   0.8750484   0.3744854  )
        57           Pd  tau(  57) = (   0.0024681   0.7495616   0.5014869  )
        58           Pd  tau(  58) = (   0.1265378   0.8749806   0.5000689  )
        59           Pd  tau(  59) = (   0.1247857   0.7487175   0.6240724  )
        60           Pd  tau(  60) = (  -0.0006728   0.8752309   0.6249166  )
        61           Pd  tau(  61) = (   0.0021621   0.7524928   0.7503110  )
        62           Pd  tau(  62) = (   0.1263830   0.8737992   0.7522490  )
        63           Pd  tau(  63) = (   0.1241485   0.7499906   0.8774641  )
        64           Pd  tau(  64) = (  -0.0000632   0.8750190   0.8746581  )
        65           Pd  tau(  65) = (   0.2499131  -0.0010894  -0.0000838  )
        66           Pd  tau(  66) = (   0.3725714   0.1231580   0.0023628  )
        67           Pd  tau(  67) = (   0.3749239   0.0022418   0.1246238  )
        68           Pd  tau(  68) = (   0.2521796   0.1231801   0.1258448  )
        69           Pd  tau(  69) = (   0.2498433   0.0010300   0.2519631  )
        70           Pd  tau(  70) = (   0.3752321   0.1250318   0.2494479  )
        71           Pd  tau(  71) = (   0.3750190   0.0016248   0.3749707  )
        72           Pd  tau(  72) = (   0.2499619   0.1234292   0.3749410  )
        73           Pd  tau(  73) = (   0.2524881   0.0000084   0.5001157  )
        74           Pd  tau(  74) = (   0.3768780   0.1248791   0.4989104  )
        75           Pd  tau(  75) = (   0.3759953  -0.0023285   0.6244243  )
        76           Pd  tau(  76) = (   0.2501234   0.1251016   0.6260405  )
        77           Pd  tau(  77) = (   0.2487471  -0.0000256   0.7477510  )
        78           Pd  tau(  78) = (   0.3745846   0.1261510   0.7524928  )
        79           Pd  tau(  79) = (   0.3758971   0.0008189   0.8752275  )
        80           Pd  tau(  80) = (   0.2493857   0.1258150   0.8736318  )
        81           Pd  tau(  81) = (   0.2510288   0.2498952  -0.0000844  )
        82           Pd  tau(  82) = (   0.3758803   0.3746296   0.0011855  )
        83           Pd  tau(  83) = (   0.3774246   0.2490771   0.1244118  )
        84           Pd  tau(  84) = (   0.2488424   0.3773637   0.1225012  )
        85           Pd  tau(  85) = (   0.2497501   0.2501387   0.2503696  )
        86           Pd  tau(  86) = (   0.3770195   0.3757136   0.2486165  )
        87           Pd  tau(  87) = (   0.3761155   0.2492746   0.3749910  )
        88           Pd  tau(  88) = (   0.2516781   0.3749804   0.3742963  )
        89           Pd  tau(  89) = (   0.2502729   0.2507944   0.4979058  )
        90           Pd  tau(  90) = (   0.3747074   0.3750417   0.4999212  )
        91           Pd  tau(  91) = (   0.3749798   0.2524182   0.6259901  )
        92           Pd  tau(  92) = (   0.2492737   0.3750182   0.6249915  )
        93           Pd  tau(  93) = (   0.2499309   0.2491890   0.7511762  )
        94           Pd  tau(  94) = (   0.3758609   0.3750579   0.7487294  )
        95           Pd  tau(  95) = (   0.3747479   0.2475612   0.8746379  )
        96           Pd  tau(  96) = (   0.2502737   0.3769724   0.8759256  )
        97           Pd  tau(  97) = (   0.2502188   0.4999818   0.0024101  )
        98           Pd  tau(  98) = (   0.3757240   0.6270445   0.0012799  )
        99           Pd  tau(  99) = (   0.3747483   0.4985421   0.1250828  )
       100           Pd  tau( 100) = (   0.2493248   0.6252632   0.1248144  )
       101           Pd  tau( 101) = (   0.2490202   0.5000336   0.2499634  )
       102           Pd  tau( 102) = (   0.3749762   0.6247392   0.2500985  )
       103           Pd  tau( 103) = (   0.3749805   0.4998916   0.3732276  )
       104           Pd  tau( 104) = (   0.2506225   0.6250202   0.3746455  )
       105           Pd  tau( 105) = (   0.2493690   0.4989651   0.4996060  )
       106           Pd  tau( 106) = (   0.3750195   0.6249786   0.4999302  )
       107           Pd  tau( 107) = (   0.3767241   0.5024518   0.6257208  )
       108           Pd  tau( 108) = (   0.2475418   0.6251234   0.6274127  )
       109           Pd  tau( 109) = (   0.2480636   0.5000192   0.7481339  )
       110           Pd  tau( 110) = (   0.3768920   0.6250087   0.7524927  )
       111           Pd  tau( 111) = (   0.3727606   0.5001465   0.8747093  )
       112           Pd  tau( 112) = (   0.2500182   0.6226576   0.8735634  )
       113           Pd  tau( 113) = (   0.2498692   0.7475413  -0.0001513  )
       114           Pd  tau( 114) = (   0.3754540   0.8769513  -0.0006080  )
       115           Pd  tau( 115) = (   0.3749527   0.7475524   0.1249805  )
       116           Pd  tau( 116) = (   0.2499914   0.8747323   0.1227161  )
       117           Pd  tau( 117) = (   0.2483122   0.7498612   0.2479278  )
       118           Pd  tau( 118) = (   0.3755954   0.8728937   0.2499156  )
       119           Pd  tau( 119) = (   0.3725557   0.7500094   0.3760482  )
       120           Pd  tau( 120) = (   0.2509126   0.8750182   0.3725025  )
       121           Pd  tau( 121) = (   0.2501066   0.7502025   0.5018415  )
       122           Pd  tau( 122) = (   0.3749819   0.8750342   0.4982410  )
       123           Pd  tau( 123) = (   0.3770567   0.7500752   0.6248003  )
       124           Pd  tau( 124) = (   0.2493026   0.8750428   0.6250691  )
       125           Pd  tau( 125) = (   0.2493610   0.7499191   0.7499913  )
       126           Pd  tau( 126) = (   0.3750787   0.8774937   0.7495381  )
       127           Pd  tau( 127) = (   0.3730230   0.7498913   0.8725414  )
       128           Pd  tau( 128) = (   0.2499819   0.8752915   0.8735525  )
       129           Pd  tau( 129) = (   0.4999645   0.0022600  -0.0000688  )
       130           Pd  tau( 130) = (   0.6226750   0.1231792   0.0001846  )
       131           Pd  tau( 131) = (   0.6268365   0.0006162   0.1237045  )
       132           Pd  tau( 132) = (   0.5000956   0.1256324   0.1254745  )
       133           Pd  tau( 133) = (   0.4984341   0.0000641   0.2489618  )
       134           Pd  tau( 134) = (   0.6247741   0.1245995   0.2522510  )
       135           Pd  tau( 135) = (   0.6236084   0.0021965   0.3766058  )
       136           Pd  tau( 136) = (   0.5000288   0.1243086   0.3747726  )
       137           Pd  tau( 137) = (   0.5007595  -0.0003200   0.4978153  )
       138           Pd  tau( 138) = (   0.6249651   0.1251010   0.5001679  )
       139           Pd  tau( 139) = (   0.6250769  -0.0000197   0.6272860  )
       140           Pd  tau( 140) = (   0.4998977   0.1263988   0.6237989  )
       141           Pd  tau( 141) = (   0.4989860   0.0000395   0.7502083  )
       142           Pd  tau( 142) = (   0.6274596   0.1249018   0.7500264  )
       143           Pd  tau( 143) = (   0.6249582  -0.0020534   0.8771943  )
       144           Pd  tau( 144) = (   0.5020383   0.1249015   0.8751513  )
       145           Pd  tau( 145) = (   0.5000302   0.2491122   0.0021020  )
       146           Pd  tau( 146) = (   0.6225882   0.3729858   0.0007160  )
       147           Pd  tau( 147) = (   0.6229265   0.2506439   0.1251189  )
       148           Pd  tau( 148) = (   0.5000086   0.3773315   0.1225284  )
       149           Pd  tau( 149) = (   0.5000454   0.2516791   0.2475291  )
       150           Pd  tau( 150) = (   0.6239629   0.3774450   0.2501069  )
       151           Pd  tau( 151) = (   0.6252839   0.2498425   0.3744373  )
       152           Pd  tau( 152) = (   0.5002546   0.3750084   0.3761757  )
       153           Pd  tau( 153) = (   0.5000217   0.2491593   0.4992596  )
       154           Pd  tau( 154) = (   0.6255699   0.3725516   0.5001329  )
       155           Pd  tau( 155) = (   0.6249819   0.2510961   0.6260874  )
       156           Pd  tau( 156) = (   0.4975677   0.3757962   0.6249810  )
       157           Pd  tau( 157) = (   0.5003822   0.2521784   0.7498292  )
       158           Pd  tau( 158) = (   0.6267096   0.3742475   0.7497755  )
       159           Pd  tau( 159) = (   0.6252922   0.2477860   0.8766115  )
       160           Pd  tau( 160) = (   0.4975679   0.3748677   0.8774973  )
       161           Pd  tau( 161) = (   0.4990488   0.5017923  -0.0008069  )
       162           Pd  tau( 162) = (   0.6271105   0.6252352  -0.0004181  )
       163           Pd  tau( 163) = (   0.6252849   0.5019648   0.1225119  )
       164           Pd  tau( 164) = (   0.4976816   0.6269812   0.1234286  )
       165           Pd  tau( 165) = (   0.4999133   0.5020417   0.2498562  )
       166           Pd  tau( 166) = (   0.6250087   0.6251860   0.2475588  )
       167           Pd  tau( 167) = (   0.6249364   0.5000182   0.3764043  )
       168           Pd  tau( 168) = (   0.4994028   0.6249585   0.3750184  )
       169           Pd  tau( 169) = (   0.4978061   0.4999741   0.4999691  )
       170           Pd  tau( 170) = (   0.6250170   0.6249244   0.4985998  )
       171           Pd  tau( 171) = (   0.6250184   0.5011490   0.6250086  )
       172           Pd  tau( 172) = (   0.4978529   0.6237835   0.6230701  )
       173           Pd  tau( 173) = (   0.5000085   0.5003380   0.7500348  )
       174           Pd  tau( 174) = (   0.6260134   0.6247883   0.7497325  )
       175           Pd  tau( 175) = (   0.6225007   0.4997476   0.8758329  )
       176           Pd  tau( 176) = (   0.4983829   0.6273413   0.8746025  )
       177           Pd  tau( 177) = (   0.5024146   0.7499798  -0.0007998  )
       178           Pd  tau( 178) = (   0.6251605   0.8762084  -0.0000595  )
       179           Pd  tau( 179) = (   0.6249815   0.7498631   0.1230081  )
       180           Pd  tau( 180) = (   0.5000188   0.8770134   0.1269916  )
       181           Pd  tau( 181) = (   0.5000950   0.7499774   0.2499532  )
       182           Pd  tau( 182) = (   0.6233173   0.8725000   0.2500567  )
       183           Pd  tau( 183) = (   0.6274956   0.7498601   0.3765211  )
       184           Pd  tau( 184) = (   0.5000098   0.8747154   0.3749808  )
       185           Pd  tau( 185) = (   0.4994993   0.7500549   0.5007553  )
       186           Pd  tau( 186) = (   0.6240016   0.8739076   0.5024969  )
       187           Pd  tau( 187) = (   0.6271033   0.7508820   0.6250398  )
       188           Pd  tau( 188) = (   0.4998667   0.8750184   0.6265074  )
       189           Pd  tau( 189) = (   0.5000181   0.7496741   0.7518469  )
       190           Pd  tau( 190) = (   0.6271579   0.8773779   0.7500084  )
       191           Pd  tau( 191) = (   0.6226034   0.7521058   0.8736979  )
       192           Pd  tau( 192) = (   0.4998892   0.8751433   0.8746454  )
       193           Pd  tau( 193) = (   0.7500085  -0.0000252  -0.0003553  )
       194           Pd  tau( 194) = (   0.8728023   0.1250653   0.0000085  )
       195           Pd  tau( 195) = (   0.8730706   0.0018679   0.1270338  )
       196           Pd  tau( 196) = (   0.7485934   0.1270696   0.1235415  )
       197           Pd  tau( 197) = (   0.7500462   0.0016322   0.2475856  )
       198           Pd  tau( 198) = (   0.8735667   0.1250183   0.2506256  )
       199           Pd  tau( 199) = (   0.8752689  -0.0015427   0.3748406  )
       200           Pd  tau( 200) = (   0.7497267   0.1237166   0.3770800  )
       201           Pd  tau( 201) = (   0.7497206  -0.0000915   0.5019832  )
       202           Pd  tau( 202) = (   0.8732972   0.1248802   0.5000096  )
       203           Pd  tau( 203) = (   0.8760923   0.0016567   0.6248105  )
       204           Pd  tau( 204) = (   0.7493557   0.1263008   0.6250638  )
       205           Pd  tau( 205) = (   0.7500200   0.0002546   0.7500687  )
       206           Pd  tau( 206) = (   0.8725918   0.1249818   0.7519978  )
       207           Pd  tau( 207) = (   0.8749816  -0.0024817   0.8749433  )
       208           Pd  tau( 208) = (   0.7495964   0.1265956   0.8770045  )
       209           Pd  tau( 209) = (   0.7502524   0.2517084  -0.0002310  )
       210           Pd  tau( 210) = (   0.8752198   0.3759819   0.0008333  )
       211           Pd  tau( 211) = (   0.8764378   0.2498195   0.1225276  )
       212           Pd  tau( 212) = (   0.7504714   0.3774205   0.1270774  )
       213           Pd  tau( 213) = (   0.7493537   0.2492164   0.2475346  )
       214           Pd  tau( 214) = (   0.8766903   0.3744756   0.2519231  )
       215           Pd  tau( 215) = (   0.8749546   0.2523667   0.3758533  )
       216           Pd  tau( 216) = (   0.7500228   0.3774695   0.3750709  )
       217           Pd  tau( 217) = (   0.7476592   0.2507654   0.5024999  )
       218           Pd  tau( 218) = (   0.8767029   0.3739788   0.5000386  )
       219           Pd  tau( 219) = (   0.8749103   0.2518012   0.6264126  )
       220           Pd  tau( 220) = (   0.7499819   0.3748109   0.6225815  )
       221           Pd  tau( 221) = (   0.7480588   0.2478851   0.7488506  )
       222           Pd  tau( 222) = (   0.8749651   0.3748150   0.7505368  )
       223           Pd  tau( 223) = (   0.8771082   0.2479195   0.8747632  )
       224           Pd  tau( 224) = (   0.7481229   0.3731715   0.8750773  )
       225           Pd  tau( 225) = (   0.7484761   0.4995869  -0.0020004  )
       226           Pd  tau( 226) = (   0.8752292   0.6247699   0.0013090  )
       227           Pd  tau( 227) = (   0.8755478   0.5023759   0.1248956  )
       228           Pd  tau( 228) = (   0.7500084   0.6226012   0.1273872  )
       229           Pd  tau( 229) = (   0.7475210   0.5001707   0.2500652  )
       230           Pd  tau( 230) = (   0.8727939   0.6251176   0.2508071  )
       231           Pd  tau( 231) = (   0.8766009   0.5002711   0.3725099  )
       232           Pd  tau( 232) = (   0.7496188   0.6254103   0.3768621  )
       233           Pd  tau( 233) = (   0.7490120   0.4997587   0.5024186  )
       234           Pd  tau( 234) = (   0.8749417   0.6271532   0.5001382  )
       235           Pd  tau( 235) = (   0.8774634   0.4999913   0.6249350  )
       236           Pd  tau( 236) = (   0.7501537   0.6275000   0.6229656  )
       237           Pd  tau( 237) = (   0.7491673   0.5011344   0.7499450  )
       238           Pd  tau( 238) = (   0.8749911   0.6244801   0.7504714  )
       239           Pd  tau( 239) = (   0.8743813   0.4979764   0.8768445  )
       240           Pd  tau( 240) = (   0.7513867   0.6256193   0.8743732  )
       241           Pd  tau( 241) = (   0.7480102   0.7489444  -0.0001328  )
       242           Pd  tau( 242) = (   0.8749662   0.8750487   0.0012617  )
       243           Pd  tau( 243) = (   0.8731459   0.7490248   0.1254168  )
       244           Pd  tau( 244) = (   0.7520242   0.8760561   0.1226375  )
       245           Pd  tau( 245) = (   0.7516930   0.7501645   0.2500086  )
       246           Pd  tau( 246) = (   0.8751500   0.8769138   0.2496257  )
       247           Pd  tau( 247) = (   0.8748567   0.7482531   0.3754460  )
       248           Pd  tau( 248) = (   0.7497815   0.8750085   0.3745293  )
       249           Pd  tau( 249) = (   0.7490139   0.7491089   0.4991345  )
       250           Pd  tau( 250) = (   0.8774989   0.8736271   0.5024956  )
       251           Pd  tau( 251) = (   0.8745745   0.7523919   0.6239348  )
       252           Pd  tau( 252) = (   0.7486523   0.8744022   0.6267128  )
       253           Pd  tau( 253) = (   0.7508444   0.7499481   0.7480036  )
       254           Pd  tau( 254) = (   0.8756758   0.8757136   0.7500519  )
       255           Pd  tau( 255) = (   0.8729214   0.7500186   0.8769251  )
       256           Pd  tau( 256) = (   0.7500092   0.8750969   0.8751023  )

     number of k points=     1  Marzari-Vanderbilt smearing, width (Ry)=  0.0500
                       cart. coord. in units 2pi/alat
        k(    1) = (   0.0000000   0.0000000   0.0000000), wk =   2.0000000

     Dense  grid:  1115942 G-vectors     FFT dimensions: ( 180, 180, 180)

     Largest allocated arrays     est. size (Mb)     dimensions
        Kohn-Sham Wavefunctions        52.33 Mb     (   1063, 3226)
        NL pseudopotentials            74.74 Mb     (   1063, 4608)
        Each V/rho on FFT grid          0.49 Mb     (  32400)
        Each G-vector array             0.03 Mb     (   4224)
        G-vector shells                 0.01 Mb     (   1687)
     Largest temporary arrays     est. size (Mb)     dimensions
        Auxiliary wavefunctions       104.65 Mb     (   1063,12904)
        Each subspace H/S matrix       10.50 Mb     (1173,1173)
        Each <psi_i|beta_j> matrix    113.41 Mb     (   4608, 3226)
        Arrays for rho mixing           3.96 Mb     (  32400,   8)

     Check: negative/imaginary core charge=   -0.000007    0.000000

     Initial potential from superposition of free atoms

     starting charge 4607.90207, renormalised to 4608.00000
     Starting wfc are 2560 randomized atomic wfcs
     Checking if some PAW data can be deallocated... 

     total cpu time spent up to now is       30.5 secs

     per-process dynamical memory:   232.3 Mb

     Self-consistent Calculation

     iteration #  1     ecut=   120.00 Ry     beta=0.70
     Davidson diagonalization with overlap
     ethr =  1.00E-02,  avg # of iterations =  8.0

     Threshold (ethr) on eigenvalues was too large:
     Diagonalizing with lowered threshold

     Davidson diagonalization with overlap
     ethr =  8.05E-05,  avg # of iterations = 16.0

     total cpu time spent up to now is      691.9 secs

     total energy              = -131078.70516901 Ry
     Harris-Foulkes estimate   = -131080.38853839 Ry
     estimated scf accuracy    <       3.68117897 Ry

     iteration #  2     ecut=   120.00 Ry     beta=0.70
     Davidson diagonalization with overlap
     ethr =  7.99E-05,  avg # of iterations =  2.0

     total cpu time spent up to now is      811.0 secs

     total energy              = -131079.29787454 Ry
     Harris-Foulkes estimate   = -131079.43311681 Ry
     estimated scf accuracy    <       0.47747333 Ry

     iteration #  3     ecut=   120.00 Ry     beta=0.70
     Davidson diagonalization with overlap
     ethr =  1.04E-05,  avg # of iterations = 17.0

     total cpu time spent up to now is     1090.3 secs

     total energy              = -131079.32063327 Ry
     Harris-Foulkes estimate   = -131079.39875027 Ry
     estimated scf accuracy    <       1.35389491 Ry

     iteration #  4     ecut=   120.00 Ry     beta=0.70
     Davidson diagonalization with overlap
     ethr =  1.04E-05,  avg # of iterations =  1.0

     total cpu time spent up to now is     1179.0 secs

     total energy              = -131079.34688423 Ry
     Harris-Foulkes estimate   = -131079.36000899 Ry
     estimated scf accuracy    <       0.15683167 Ry

     iteration #  5     ecut=   120.00 Ry     beta=0.70
     Davidson diagonalization with overlap
     ethr =  3.40E-06,  avg # of iterations =  1.0

     total cpu time spent up to now is     1267.9 secs

     total energy              = -131079.34704621 Ry
     Harris-Foulkes estimate   = -131079.35760108 Ry
     estimated scf accuracy    <       0.14194758 Ry

     iteration #  6     ecut=   120.00 Ry     beta=0.70
     Davidson diagonalization with overlap
     ethr =  3.08E-06,  avg # of iterations =  1.0

     total cpu time spent up to now is     1356.4 secs

     total energy              = -131079.35141414 Ry
     Harris-Foulkes estimate   = -131079.35226351 Ry
     estimated scf accuracy    <       0.01410855 Ry

     iteration #  7     ecut=   120.00 Ry     beta=0.70
     Davidson diagonalization with overlap
     ethr =  3.06E-07,  avg # of iterations =  1.0

     total cpu time spent up to now is     1445.6 secs

     total energy              = -131079.35203606 Ry
     Harris-Foulkes estimate   = -131079.35205463 Ry
     estimated scf accuracy    <       0.00227028 Ry

     iteration #  8     ecut=   120.00 Ry     beta=0.70
     Davidson diagonalization with overlap
     ethr =  4.93E-08,  avg # of iterations =  3.0

     total cpu time spent up to now is     1557.0 secs

     total energy              = -131079.35204540 Ry
     Harris-Foulkes estimate   = -131079.35227371 Ry
     estimated scf accuracy    <       0.00302144 Ry

     iteration #  9     ecut=   120.00 Ry     beta=0.70
     Davidson diagonalization with overlap
     ethr =  4.93E-08,  avg # of iterations =  1.0

     total cpu time spent up to now is     1645.7 secs

     total energy              = -131079.35215352 Ry
     Harris-Foulkes estimate   = -131079.35216457 Ry
     estimated scf accuracy    <       0.00013395 Ry

     iteration # 10     ecut=   120.00 Ry     beta=0.70
     Davidson diagonalization with overlap
     ethr =  2.91E-09,  avg # of iterations =  3.0

     total cpu time spent up to now is     1758.1 secs

     total energy              = -131079.35216149 Ry
     Harris-Foulkes estimate   = -131079.35216396 Ry
     estimated scf accuracy    <       0.00004912 Ry

     iteration # 11     ecut=   120.00 Ry     beta=0.70
     Davidson diagonalization with overlap
     ethr =  1.07E-09,  avg # of iterations =  3.0

     total cpu time spent up to now is     1871.8 secs

     total energy              = -131079.35216320 Ry
     Harris-Foulkes estimate   = -131079.35216442 Ry
     estimated scf accuracy    <       0.00002070 Ry

     iteration # 12     ecut=   120.00 Ry     beta=0.70
     Davidson diagonalization with overlap
     ethr =  4.49E-10,  avg # of iterations =  2.0

     total cpu time spent up to now is     1972.3 secs

     total energy              = -131079.35216420 Ry
     Harris-Foulkes estimate   = -131079.35216466 Ry
     estimated scf accuracy    <       0.00001100 Ry

     iteration # 13     ecut=   120.00 Ry     beta=0.70
     Davidson diagonalization with overlap
     ethr =  2.39E-10,  avg # of iterations =  1.0

     total cpu time spent up to now is     2061.2 secs

     total energy              = -131079.35216434 Ry
     Harris-Foulkes estimate   = -131079.35216479 Ry
     estimated scf accuracy    <       0.00000429 Ry

     iteration # 14     ecut=   120.00 Ry     beta=0.70
     Davidson diagonalization with overlap
     ethr =  9.32E-11,  avg # of iterations =  3.0

     total cpu time spent up to now is     2176.3 secs

     total energy              = -131079.35216467 Ry
     Harris-Foulkes estimate   = -131079.35216468 Ry
     estimated scf accuracy    <       0.00000061 Ry

     iteration # 15     ecut=   120.00 Ry     beta=0.70
     Davidson diagonalization with overlap
     ethr =  1.31E-11,  avg # of iterations =  3.0

     total cpu time spent up to now is     2291.7 secs

     total energy              = -131079.35216475 Ry
     Harris-Foulkes estimate   = -131079.35216471 Ry
     estimated scf accuracy    <       0.00000045 Ry

     iteration # 16     ecut=   120.00 Ry     beta=0.70
     Davidson diagonalization with overlap
     ethr =  9.86E-12,  avg # of iterations =  1.0

     total cpu time spent up to now is     2379.9 secs

     End of self-consistent calculation

          k = 0.0000 0.0000 0.0000 (282294 PWs)   bands (ev):

   -64.2124 -64.2012 -64.1987 -64.1941 -64.1919 -64.1903 -64.1884 -64.1877
   -64.1869 -64.1860 -64.1824 -64.1813 -64.1807 -64.1792 -64.1781 -64.1771
   -64.1751 -64.1735 -64.1733 -64.1727 -64.1713 -64.1701 -64.1695 -64.1688
   -64.1678 -64.1674 -64.1667 -64.1659 -64.1654 -64.1648 -64.1644 -64.1638
   -64.1625 -64.1620 -64.1613 -64.1610 -64.1601 -64.1597 -64.1594 -64.1586
   -64.1583 -64.1579 -64.1569 -64.1567 -64.1564 -64.1560 -64.1552 -64.1551
   -64.1551 -64.1544 -64.1538 -64.1532 -64.1527 -64.1523 -64.1523 -64.1521
   -64.1514 -64.1514 -64.1508 -64.1504 -64.1494 -64.1491 -64.1487 -64.1483
   -64.1481 -64.1476 -64.1470 -64.1468 -64.1464 -64.1461 -64.1458 -64.1455
   -64.1454 -64.1448 -64.1444 -64.1440 -64.1438 -64.1436 -64.1433 -64.1430
   -64.1427 -64.1422 -64.1418 -64.1414 -64.1411 -64.1407 -64.1406 -64.1404
   -64.1402 -64.1399 -64.1394 -64.1393 -64.1390 -64.1387 -64.1384 -64.1382
   -64.1378 -64.1375 -64.1373 -64.1371 -64.1367 -64.1365 -64.1363 -64.1361
   -64.1359 -64.1355 -64.1353 -64.1351 -64.1348 -64.1347 -64.1343 -64.1341
   -64.1336 -64.1331 -64.1325 -64.1324 -64.1321 -64.1319 -64.1315 -64.1312
   -64.1312 -64.1309 -64.1306 -64.1303 -64.1302 -64.1300 -64.1296 -64.1292
   -64.1291 -64.1289 -64.1287 -64.1282 -64.1280 -64.1278 -64.1276 -64.1273
   -64.1270 -64.1268 -64.1264 -64.1261 -64.1261 -64.1258 -64.1255 -64.1249
   -64.1247 -64.1246 -64.1246 -64.1240 -64.1239 -64.1237 -64.1232 -64.1231
   -64.1227 -64.1226 -64.1224 -64.1223 -64.1220 -64.1218 -64.1216 -64.1215
   -64.1211 -64.1209 -64.1205 -64.1203 -64.1199 -64.1198 -64.1197 -64.1193
   -64.1191 -64.1187 -64.1186 -64.1183 -64.1183 -64.1179 -64.1177 -64.1175
   -64.1174 -64.1170 -64.1164 -64.1162 -64.1161 -64.1158 -64.1155 -64.1154
   -64.1151 -64.1150 -64.1147 -64.1144 -64.1141 -64.1137 -64.1133 -64.1132
   -64.1126 -64.1124 -64.1118 -64.1116 -64.1113 -64.1110 -64.1105 -64.1103
   -64.1100 -64.1096 -64.1092 -64.1091 -64.1088 -64.1086 -64.1084 -64.1075
   -64.1072 -64.1067 -64.1066 -64.1064 -64.1061 -64.1057 -64.1045 -64.1041
   -64.1036 -64.1032 -64.1030 -64.1029 -64.1019 -64.1007 -64.1003 -64.1002
   -64.0984 -64.0983 -64.0981 -64.0973 -64.0964 -64.0957 -64.0952 -64.0949
   -64.0944 -64.0942 -64.0940 -64.0925 -64.0923 -64.0920 -64.0917 -64.0907
   -64.0905 -64.0872 -64.0851 -64.0832 -64.0824 -64.0819 -64.0815 -64.0800
   -64.0792 -64.0790 -64.0781 -64.0770 -64.0752 -64.0740 -64.0676 -64.0675
   -30.1053 -30.1039 -30.1037 -30.1027 -30.0859 -30.0843 -30.0834 -30.0783
   -30.0762 -30.0745 -30.0733 -30.0732 -30.0709 -30.0697 -30.0694 -30.0685
   -30.0669 -30.0664 -30.0662 -30.0650 -30.0632 -30.0631 -30.0627 -30.0625
   -30.0615 -30.0611 -30.0604 -30.0600 -30.0597 -30.0590 -30.0578 -30.0570
   -30.0564 -30.0561 -30.0554 -30.0553 -30.0546 -30.0544 -30.0536 -30.0533
   -30.0529 -30.0519 -30.0510 -30.0508 -30.0502 -30.0501 -30.0491 -30.0486
   -30.0482 -30.0473 -30.0472 -30.0466 -30.0463 -30.0458 -30.0449 -30.0445
   -30.0443 -30.0433 -30.0428 -30.0419 -30.0416 -30.0410 -30.0408 -30.0404
   -30.0396 -30.0390 -30.0380 -30.0376 -30.0372 -30.0368 -30.0365 -30.0364
   -30.0356 -30.0347 -30.0344 -30.0338 -30.0330 -30.0329 -30.0326 -30.0320
   -30.0306 -30.0300 -30.0297 -30.0291 -30.0287 -30.0274 -30.0271 -30.0266
   -30.0264 -30.0256 -30.0253 -30.0246 -30.0236 -30.0227 -30.0225 -30.0224
   -30.0215 -30.0209 -30.0199 -30.0197 -30.0193 -30.0188 -30.0186 -30.0178
   -30.0177 -30.0165 -30.0156 -30.0151 -30.0143 -30.0138 -30.0133 -30.0126
   -30.0120 -30.0118 -30.0115 -30.0108 -30.0100 -30.0094 -30.0088 -30.0082
   -30.0078 -30.0072 -30.0067 -30.0055 -30.0045 -30.0043 -30.0038 -30.0032
   -30.0020 -30.0016 -30.0009 -30.0006 -29.9999 -29.9996 -29.9985 -29.9981
   -29.9968 -29.9958 -29.9955 -29.9948 -29.9938 -29.9935 -29.9931 -29.9927
   -29.9922 -29.9917 -29.9913 -29.9904 -29.9899 -29.9894 -29.9889 -29.9886
   -29.9876 -29.9874 -29.9865 -29.9862 -29.9854 -29.9850 -29.9845 -29.9838
   -29.9834 -29.9831 -29.9828 -29.9825 -29.9815 -29.9810 -29.9802 -29.9798
   -29.9791 -29.9791 -29.9780 -29.9779 -29.9769 -29.9766 -29.9759 -29.9755
   -29.9750 -29.9743 -29.9740 -29.9737 -29.9734 -29.9724 -29.9715 -29.9710
   -29.9703 -29.9698 -29.9696 -29.9685 -29.9682 -29.9674 -29.9656 -29.9655
   -29.9627 -29.9601 -29.9595 -29.9578 -29.9572 -29.9555 -29.9554 -29.9545
   -29.9538 -29.9529 -29.9521 -29.9507 -29.9487 -29.9420 -29.9405 -29.9391
   -29.9379 -29.9372 -29.9369 -29.9357 -29.9354 -29.9349 -29.9344 -29.9340
   -29.9334 -29.9328 -29.9326 -29.9324 -29.9317 -29.9316 -29.9308 -29.9302
   -29.9301 -29.9294 -29.9290 -29.9287 -29.9283 -29.9276 -29.9274 -29.9269
   -29.9265 -29.9258 -29.9254 -29.9250 -29.9245 -29.9242 -29.9236 -29.9223
   -29.9222 -29.9218 -29.9215 -29.9211 -29.9203 -29.9199 -29.9193 -29.9191
   -29.9188 -29.9179 -29.9174 -29.9171 -29.9168 -29.9162 -29.9155 -29.9150
   -29.9144 -29.9139 -29.9137 -29.9122 -29.9110 -29.9104 -29.9100 -29.9088
   -29.9068 -29.8928 -29.8913 -29.8904 -29.8898 -29.8892 -29.8884 -29.8883
   -29.8872 -29.8842 -29.8828 -29.8824 -29.8822 -29.8811 -29.8798 -29.8796
   -29.8788 -29.8770 -29.8764 -29.8759 -29.8746 -29.8744 -29.8740 -29.8730
   -29.8724 -29.8720 -29.8692 -29.8672 -29.8669 -29.8662 -29.8653 -29.8645
   -29.8641 -29.8633 -29.8624 -29.8619 -29.8616 -29.8614 -29.8610 -29.8605
   -29.8602 -29.8595 -29.8594 -29.8594 -29.8586 -29.8583 -29.8581 -29.8579
   -29.8571 -29.8565 -29.8563 -29.8560 -29.8557 -29.8552 -29.8551 -29.8547
   -29.8541 -29.8538 -29.8536 -29.8535 -29.8532 -29.8530 -29.8527 -29.8520
   -29.8520 -29.8515 -29.8514 -29.8508 -29.8503 -29.8500 -29.8498 -29.8495
   -29.8494 -29.8491 -29.8488 -29.8484 -29.8481 -29.8480 -29.8476 -29.8475
   -29.8470 -29.8469 -29.8467 -29.8462 -29.8458 -29.8454 -29.8451 -29.8450
   -29.8446 -29.8445 -29.8443 -29.8442 -29.8440 -29.8435 -29.8432 -29.8426
   -29.8425 -29.8420 -29.8418 -29.8417 -29.8411 -29.8408 -29.8404 -29.8402
   -29.8399 -29.8395 -29.8395 -29.8393 -29.8389 -29.8386 -29.8383 -29.8380
   -29.8377 -29.8375 -29.8370 -29.8365 -29.8363 -29.8358 -29.8355 -29.8351
   -29.8348 -29.8344 -29.8337 -29.8332 -29.8327 -29.8318 -29.8315 -29.8307
   -29.8306 -29.8299 -29.8292 -29.8287 -29.8282 -29.8274 -29.8258 -29.8209
   -29.8208 -29.8201 -29.8196 -29.8189 -29.8187 -29.8182 -29.8175 -29.8171
   -29.8168 -29.8166 -29.8161 -29.8155 -29.8152 -29.8148 -29.8147 -29.8144
   -29.8139 -29.8135 -29.8129 -29.8127 -29.8121 -29.8118 -29.8118 -29.8113
   -29.8111 -29.8106 -29.8104 -29.8098 -29.8097 -29.8093 -29.8090 -29.8088
   -29.8084 -29.8083 -29.8074 -29.8072 -29.8068 -29.8067 -29.8060 -29.8055
   -29.8054 -29.8049 -29.8045 -29.8043 -29.8040 -29.8035 -29.8032 -29.8030
   -29.8025 -29.8023 -29.8022 -29.8019 -29.8018 -29.8011 -29.8008 -29.8005
   -29.8003 -29.7998 -29.7995 -29.7993 -29.7988 -29.7985 -29.7983 -29.7980
   -29.7974 -29.7973 -29.7964 -29.7961 -29.7960 -29.7958 -29.7954 -29.7951
   -29.7947 -29.7946 -29.7942 -29.7939 -29.7937 -29.7933 -29.7930 -29.7927
   -29.7926 -29.7921 -29.7919 -29.7917 -29.7915 -29.7913 -29.7909 -29.7908
   -29.7905 -29.7901 -29.7900 -29.7898 -29.7894 -29.7894 -29.7889 -29.7889
   -29.7886 -29.7881 -29.7879 -29.7876 -29.7872 -29.7870 -29.7868 -29.7865
   -29.7863 -29.7862 -29.7861 -29.7856 -29.7855 -29.7852 -29.7851 -29.7849
   -29.7844 -29.7843 -29.7840 -29.7839 -29.7837 -29.7834 -29.7831 -29.7830
   -29.7829 -29.7825 -29.7823 -29.7821 -29.7819 -29.7814 -29.7813 -29.7812
   -29.7807 -29.7804 -29.7802 -29.7800 -29.7798 -29.7797 -29.7794 -29.7789
   -29.7785 -29.7785 -29.7783 -29.7779 -29.7775 -29.7774 -29.7771 -29.7770
   -29.7762 -29.7761 -29.7761 -29.7756 -29.7752 -29.7749 -29.7746 -29.7745
   -29.7742 -29.7738 -29.7733 -29.7729 -29.7726 -29.7720 -29.7720 -29.7717
   -29.7713 -29.7711 -29.7705 -29.7702 -29.7696 -29.7693 -29.7689 -29.7685
   -29.7682 -29.7681 -29.7672 -29.7669 -29.7667 -29.7660 -29.7659 -29.7652
   -29.7649 -29.7646 -29.7631 -29.7599 -29.7594 -29.7589 -29.7584 -29.7580
   -29.7579 -29.7572 -29.7567 -29.7564 -29.7562 -29.7560 -29.7553 -29.7550
   -29.7547 -29.7546 -29.7544 -29.7537 -29.7536 -29.7533 -29.7531 -29.7527
   -29.7525 -29.7521 -29.7517 -29.7516 -29.7511 -29.7510 -29.7509 -29.7504
   -29.7500 -29.7498 -29.7497 -29.7496 -29.7493 -29.7490 -29.7488 -29.7483
   -29.7482 -29.7478 -29.7476 -29.7473 -29.7469 -29.7468 -29.7465 -29.7464
   -29.7462 -29.7457 -29.7457 -29.7454 -29.7451 -29.7448 -29.7447 -29.7445
   -29.7441 -29.7438 -29.7438 -29.7434 -29.7432 -29.7428 -29.7423 -29.7420
   -29.7417 -29.7415 -29.7411 -29.7408 -29.7406 -29.7403 -29.7402 -29.7398
   -29.7397 -29.7394 -29.7393 -29.7391 -29.7389 -29.7387 -29.7385 -29.7381
   -29.7377 -29.7374 -29.7371 -29.7371 -29.7368 -29.7366 -29.7362 -29.7361
   -29.7357 -29.7355 -29.7354 -29.7350 -29.7349 -29.7346 -29.7344 -29.7338
   -29.7337 -29.7335 -29.7333 -29.7326 -29.7324 -29.7321 -29.7319 -29.7316
   -29.7315 -29.7311 -29.7307 -29.7306 -29.7305 -29.7302 -29.7299 -29.7297
   -29.7294 -29.7289 -29.7285 -29.7282 -29.7279 -29.7278 -29.7274 -29.7272
   -29.7267 -29.7265 -29.7263 -29.7260 -29.7256 -29.7254 -29.7249 -29.7249
   -29.7243 -29.7242 -29.7239 -29.7233 -29.7230 -29.7222 -29.7219 -29.7218
   -29.7214 -29.7214 -29.7210 -29.7205 -29.7201 -29.7197 -29.7185 -29.7180
   -29.7173 -29.7171 -29.7161 -29.7158 -29.7155 -29.7103 -29.7094 -29.7088
   -29.7071 -29.7069 -29.7065 -29.7062 -29.7054 -29.7051 -29.7046 -29.7042
   -29.7038 -29.7032 -29.7028 -29.7017 -29.7009 -29.7008 -29.7004 -29.6990
   -29.6989 -29.6982 -29.6976 -29.6971 -29.6964 -29.6957 -29.6954 -29.6943
   -29.6943 -29.6920 -29.6903 -29.6899 -29.6894 -29.6887 -29.6880 -29.6875
   -29.6869 -29.6862 -29.6855 -29.6845 -29.6836 -29.6757 -29.6752 -29.6748
    12.7936  13.5136  13.5148  13.5253  13.5282  13.5370  13.5426  14.1353
    14.1468  14.1493  14.1511  14.1602  14.1639  14.1660  14.1695  14.1772
    14.1789  14.1871  14.1892  14.4699  14.4772  14.4788  14.4827  14.4845
    14.4892  14.4933  14.4987  14.5489  14.5496  14.5502  14.6485  14.6489
    14.6493  14.6496  14.8404  14.8408  14.8413  14.8569  14.8645  14.8676
    14.8718  14.8746  14.8838  14.9679  14.9709  14.9745  14.9776  14.9816
    14.9856  14.9877  14.9913  14.9939  14.9964  14.9981  15.0012  15.0026
    15.0066  15.0084  15.0095  15.0160  15.0231  15.0481  15.0505  15.0511
    15.0547  15.0562  15.0577  15.0582  15.0612  15.0621  15.0653  15.0665
    15.0699  15.0703  15.0724  15.0745  15.0747  15.0760  15.0780  15.0804
    15.0811  15.0816  15.0830  15.0844  15.0855  15.0865  15.0885  15.0899
    15.0907  15.0929  15.0951  15.0954  15.0983  15.0985  15.0999  15.1023
    15.1034  15.1054  15.1070  15.1096  15.1106  15.1116  15.1133  15.1155
    15.1163  15.1205  15.1218  15.1226  15.1246  15.1268  15.1311  15.1347
    15.1359  15.1387  15.1488  15.1946  15.1969  15.1974  15.2034  15.2082
    15.2104  15.2143  15.2149  15.2188  15.2232  15.2276  15.2338  15.2651
    15.2670  15.2697  15.2732  15.2770  15.2797  15.2804  15.2825  15.2868
    15.2891  15.2922  15.2950  15.3048  15.3070  15.3097  15.3107  15.3124
    15.3137  15.3163  15.3189  15.3198  15.3207  15.3226  15.3256  15.3258
    15.3273  15.3291  15.3303  15.3311  15.3338  15.3347  15.3362  15.3375
    15.3390  15.3404  15.3429  15.3444  15.3471  15.3494  15.3502  15.3512
    15.3526  15.3551  15.3582  15.3596  15.3628  15.3640  15.3674  15.3687
    15.3706  15.3721  15.3738  15.3781  15.3795  15.3830  15.3855  15.3864
    15.3930  15.3954  15.3994  15.4570  15.4609  15.4623  15.4665  15.4700
    15.4705  15.4743  15.4751  15.4756  15.4780  15.4799  15.4807  15.4840
    15.4859  15.4869  15.4882  15.4898  15.4924  15.4933  15.4943  15.4954
    15.4971  15.4986  15.5004  15.5011  15.5030  15.5042  15.5046  15.5071
    15.5079  15.5090  15.5102  15.5128  15.5155  15.5171  15.5194  15.5204
    15.5236  15.5256  15.5285  15.5298  15.5327  15.5348  15.5378  15.5394
    15.5414  15.5455  15.5495  15.5680  15.5716  15.5749  15.5769  15.5783
    15.5801  15.5815  15.5849  15.5874  15.5899  15.5915  15.5931  15.5951
    15.5967  15.5994  15.6000  15.6036  15.6051  15.6063  15.6085  15.6109
    15.6114  15.6142  15.6159  15.6177  15.6214  15.6281  15.6313  15.6356
    15.6378  15.7910  15.7942  15.7951  15.7965  15.7971  15.7995  15.8018
    15.8024  15.8033  15.8044  15.8058  15.8070  15.8645  15.8674  15.8768
    15.8792  15.8834  15.8943  15.9348  15.9382  15.9438  15.9518  15.9542
    15.9594  15.9612  15.9656  15.9668  15.9696  15.9721  15.9750  15.9758
    15.9784  15.9819  15.9845  15.9900  15.9939  15.9952  15.9961  15.9981
    16.0028  16.0042  16.0099  16.0452  16.0513  16.0548  16.0554  16.0581
    16.0600  16.0617  16.0637  16.0650  16.0680  16.0696  16.0699  16.0724
    16.0751  16.0773  16.0789  16.0819  16.0838  16.0863  16.0901  16.0910
    16.0925  16.0934  16.0942  16.0960  16.0979  16.1004  16.1016  16.1026
    16.1051  16.1058  16.1072  16.1089  16.1098  16.1112  16.1125  16.1142
    16.1150  16.1165  16.1175  16.1197  16.1205  16.1232  16.1247  16.1276
    16.1292  16.1298  16.1315  16.1325  16.1337  16.1350  16.1356  16.1391
    16.1415  16.1432  16.1440  16.1484  16.1510  16.1530  16.1552  16.2909
    16.2968  16.3040  16.3045  16.3068  16.3087  16.3140  16.3156  16.3170
    16.3208  16.3257  16.3270  16.3294  16.3323  16.3352  16.3370  16.3378
    16.3401  16.3459  16.3479  16.3502  16.3538  16.3611  16.3691  16.4079
    16.4111  16.4132  16.4148  16.4160  16.4166  16.4193  16.4230  16.4238
    16.4250  16.4255  16.4275  16.4286  16.4303  16.4328  16.4339  16.4356
    16.4385  16.4399  16.4414  16.4429  16.4440  16.4452  16.4469  16.4799
    16.4864  16.4888  16.4955  16.4980  16.5008  16.5034  16.5098  16.5113
    16.5160  16.5176  16.5291  16.5568  16.5583  16.5612  16.5620  16.5640
    16.5687  16.5721  16.5744  16.5760  16.5806  16.5814  16.5840  16.5861
    16.5879  16.5906  16.5913  16.5948  16.5966  16.5979  16.6004  16.6021
    16.6030  16.6044  16.6069  16.6101  16.6110  16.6111  16.6155  16.6173
    16.6223  16.6240  16.6256  16.6285  16.6305  16.6333  16.6388  16.6455
    16.6557  16.6591  16.6594  16.6648  16.6662  16.6711  16.6738  16.6782
    16.6801  16.6853  16.6895  16.7277  16.7327  16.7335  16.7383  16.7449
    16.7487  16.8586  16.8612  16.8626  16.8648  16.8674  16.8713  16.8746
    16.8753  16.8772  16.8783  16.8802  16.8814  16.8816  16.8836  16.8870
    16.8877  16.8900  16.8912  16.8926  16.8937  16.8951  16.8965  16.8980
    16.9006  16.9014  16.9026  16.9035  16.9039  16.9065  16.9079  16.9117
    16.9134  16.9166  16.9203  16.9215  16.9247  16.9857  16.9912  16.9956
    16.9979  17.0008  17.0019  17.0044  17.0084  17.0112  17.0137  17.0153
    17.0181  17.0195  17.0212  17.0229  17.0246  17.0292  17.0298  17.0328
    17.0347  17.0356  17.0417  17.0438  17.0446  17.0702  17.0708  17.0718
    17.0732  17.0748  17.0765  17.0774  17.0792  17.0830  17.0836  17.0878
    17.0924  17.0937  17.0965  17.1005  17.1050  17.1186  17.1213  17.1255
    17.1374  17.1440  17.1473  17.1495  17.1533  17.1548  17.1566  17.1593
    17.1612  17.1656  17.1678  17.1693  17.1718  17.1726  17.1737  17.1771
    17.1780  17.1784  17.1798  17.1841  17.1876  17.1898  17.1929  17.1964
    17.2188  17.2226  17.2255  17.2256  17.2266  17.2300  17.2324  17.2350
    17.2387  17.2404  17.2415  17.2439  17.2473  17.2496  17.2536  17.2543
    17.2552  17.2574  17.2602  17.2637  17.2675  17.2684  17.2705  17.2772
    17.3782  17.3818  17.3872  17.3883  17.3921  17.3935  17.3954  17.3959
    17.3997  17.4018  17.4022  17.4042  17.4056  17.4065  17.4083  17.4091
    17.4107  17.4114  17.4128  17.4143  17.4161  17.4172  17.4191  17.4200
    17.4213  17.4224  17.4249  17.4253  17.4257  17.4279  17.4285  17.4315
    17.4316  17.4327  17.4337  17.4357  17.4370  17.4386  17.4418  17.4430
    17.4546  17.4568  17.4581  17.4593  17.4628  17.4636  17.4656  17.4679
    17.4732  17.4739  17.4760  17.4800  17.4804  17.4848  17.4862  17.4866
    17.4895  17.4918  17.4943  17.4957  17.4972  17.4979  17.4998  17.5051
    17.5075  17.5090  17.5111  17.5129  17.5141  17.5156  17.5172  17.5199
    17.5235  17.5239  17.5249  17.5262  17.5270  17.5280  17.5297  17.5321
    17.5324  17.5329  17.5368  17.5395  17.5398  17.5416  17.5427  17.5453
    17.5618  17.5639  17.5667  17.5715  17.5733  17.5749  17.5795  17.5818
    17.5834  17.5863  17.5889  17.5903  17.5919  17.5927  17.5939  17.5964
    17.5986  17.6004  17.6026  17.6038  17.6056  17.6077  17.6100  17.6110
    17.6129  17.6156  17.6170  17.6176  17.6200  17.6202  17.6215  17.6245
    17.6251  17.6272  17.6288  17.6296  17.6318  17.6336  17.6349  17.6359
    17.6365  17.6372  17.6414  17.6434  17.6457  17.6463  17.6466  17.6485
    17.6501  17.6519  17.6525  17.6554  17.6576  17.6601  17.6610  17.6633
    17.6650  17.6661  17.6670  17.6718  17.7960  17.7988  17.8011  17.8033
    17.8035  17.8082  17.8105  17.8124  17.8152  17.8178  17.8200  17.8221
    17.8246  17.8258  17.8271  17.8291  17.8310  17.8327  17.8369  17.8405
    17.8444  17.8466  17.8487  17.8522  17.9667  17.9672  17.9705  17.9731
    17.9769  17.9777  17.9791  17.9809  17.9823  17.9840  17.9852  17.9866
    17.9888  17.9905  17.9916  17.9928  17.9943  17.9959  17.9976  17.9998
    18.0006  18.0008  18.0027  18.0059  18.0073  18.0093  18.0101  18.0126
    18.0151  18.0164  18.0176  18.0195  18.0239  18.0248  18.0255  18.0295
    18.0732  18.0757  18.0777  18.0814  18.0846  18.0871  18.0878  18.0944
    18.0965  18.0994  18.1038  18.1090  18.1403  18.1439  18.1520  18.1540
    18.1601  18.1718  18.2461  18.2484  18.2519  18.2533  18.2543  18.2569
    18.2590  18.2621  18.2634  18.2648  18.2666  18.2671  18.2696  18.2707
    18.2745  18.2752  18.2773  18.2773  18.2784  18.2812  18.2830  18.2869
    18.2882  18.2902  18.2929  18.2978  18.2991  18.3018  18.3030  18.3040
    18.3058  18.3086  18.3121  18.3135  18.3182  18.3204  18.3301  18.3314
    18.3357  18.3361  18.3383  18.3408  18.3435  18.3454  18.3465  18.3486
    18.3512  18.3515  18.3543  18.3562  18.3573  18.3603  18.3624  18.3631
    18.3650  18.3656  18.3686  18.3696  18.3717  18.3737  18.3770  18.3780
    18.3805  18.3816  18.3832  18.3878  18.3910  18.3940  18.3956  18.3980
    18.4013  18.4033  18.4043  18.4058  18.4093  18.4114  18.4137  18.4167
    18.4190  18.4193  18.4211  18.4232  18.4250  18.4258  18.4285  18.4299
    18.4329  18.4357  18.4370  18.4387  18.4403  18.4431  18.4471  18.4486
    18.4500  18.4512  18.4517  18.4545  18.4583  18.4614  18.4652  18.4706
    18.5457  18.5478  18.5487  18.5524  18.5549  18.5572  18.5592  18.5604
    18.5621  18.5637  18.5657  18.5679  18.5687  18.5695  18.5724  18.5737
    18.5742  18.5761  18.5773  18.5779  18.5806  18.5816  18.5840  18.5866
    18.5868  18.5881  18.5905  18.5912  18.5918  18.5938  18.5947  18.5961
    18.5979  18.5994  18.6007  18.6027  18.6041  18.6045  18.6076  18.6083
    18.6090  18.6118  18.6138  18.6161  18.6167  18.6179  18.6193  18.6202
    18.6233  18.6245  18.6280  18.6286  18.6294  18.6313  18.6323  18.6367
    18.6382  18.6400  18.6423  18.6457  18.6554  18.6585  18.6615  18.6630
    18.6674  18.6729  18.6937  18.6978  18.7003  18.7032  18.7093  18.7137
    18.7197  18.7199  18.7260  18.7280  18.7307  18.7385  18.7529  18.7567
    18.8816  18.8834  18.8885  18.8898  18.8917  18.8947  18.8967  18.9008
    18.9023  18.9031  18.9052  18.9076  18.9097  18.9105  18.9126  18.9143
    18.9157  18.9198  18.9209  18.9230  18.9261  18.9317  19.0062  19.0117
    19.0156  19.0193  19.0214  19.0224  19.0242  19.0264  19.0297  19.0317
    19.0338  19.0385  19.0922  19.0990  19.1011  19.1036  19.1067  19.1100
    19.1120  19.1155  19.1175  19.1224  19.1248  19.1282  19.3007  19.3057
    19.3085  19.3111  19.3142  19.3213  19.3408  19.3427  19.3433  19.3456
    19.3475  19.3513  19.3519  19.3541  19.3556  19.3569  19.3584  19.3592
    19.3613  19.3619  19.3640  19.3647  19.3669  19.3680  19.3684  19.3697
    19.3713  19.3737  19.3767  19.3768  19.3787  19.3792  19.3802  19.3825
    19.3845  19.3868  19.3895  19.3904  19.3934  19.3941  19.3954  19.3974
    19.4685  19.4699  19.4735  19.4755  19.4768  19.4795  19.4819  19.4826
    19.4837  19.4867  19.4888  19.4921  19.4943  19.4949  19.4955  19.4966
    19.4994  19.5024  19.5038  19.5053  19.5062  19.5077  19.5113  19.5123
    19.5887  19.5918  19.5932  19.5981  19.5992  19.6011  19.6027  19.6031
    19.6041  19.6047  19.6079  19.6089  19.6094  19.6115  19.6133  19.6147
    19.6165  19.6175  19.6179  19.6189  19.6209  19.6215  19.6239  19.6242
    19.6261  19.6265  19.6278  19.6282  19.6312  19.6321  19.6324  19.6330
    19.6353  19.6374  19.6376  19.6383  19.6399  19.6412  19.6421  19.6429
    19.6438  19.6465  19.6477  19.6484  19.6490  19.6508  19.6529  19.6560
    19.6568  19.6574  19.6587  19.6593  19.6601  19.6620  19.6634  19.6669
    19.6676  19.6694  19.6736  19.6750  19.7112  19.7142  19.7167  19.7181
    19.7185  19.7206  19.7217  19.7231  19.7240  19.7257  19.7271  19.7280
    19.7287  19.7311  19.7316  19.7325  19.7341  19.7357  19.7372  19.7381
    19.7395  19.7401  19.7407  19.7419  19.7438  19.7470  19.7477  19.7496
    19.7509  19.7520  19.8047  19.8058  19.8072  19.8085  19.8109  19.8126
    19.8136  19.8149  19.8162  19.8184  19.8188  19.8200  19.8210  19.8221
    19.8235  19.8243  19.8251  19.8272  19.8285  19.8290  19.8308  19.8327
    19.8336  19.8344  19.8348  19.8362  19.8373  19.8380  19.8390  19.8418
    19.8437  19.8438  19.8461  19.8486  19.8513  19.8527  19.9295  19.9299
    19.9306  19.9584  19.9587  19.9589  19.9593  19.9595  19.9602  19.9606
    19.9609  20.0417  20.0428  20.0432  20.0443  20.0446  20.0454  20.0460
    20.0466  20.0470  20.0480  20.0486  20.0494  20.0499  20.0500  20.0506
    20.0510  20.0522  20.0527  20.0530  20.0536  20.0542  20.0549  20.0560
    20.0581  20.1423  20.1466  20.1483  20.1505  20.1515  20.1570  20.1584
    20.1589  20.1617  20.1628  20.1650  20.1655  20.1674  20.1691  20.1725
    20.1738  20.1745  20.1762  20.1786  20.1826  20.1841  20.1887  20.1889
    20.1928  20.2452  20.2465  20.2468  20.2501  20.2508  20.2521  20.2528
    20.2544  20.2556  20.2560  20.2585  20.2597  20.2616  20.2633  20.2635
    20.2653  20.2663  20.2668  20.2690  20.2695  20.2709  20.2724  20.2731
    20.2744  20.2752  20.2768  20.2774  20.2776  20.2781  20.2790  20.2791
    20.2800  20.2807  20.2809  20.2815  20.2819  20.2824  20.2838  20.2839
    20.2846  20.2855  20.2863  20.2869  20.2874  20.2878  20.2883  20.2890
    20.2900  20.7409  20.7466  20.7510  20.7556  20.7595  20.7717  20.9704
    20.9707  20.9713  20.9716  21.9548  21.9568  21.9614  21.9673  21.9685
    21.9687  21.9710  21.9723  21.9740  21.9765  21.9788  21.9792  21.9803
    21.9812  21.9839  21.9870  21.9880  21.9897  21.9925  21.9949  21.9998
    22.0029  22.0041  22.0057  22.2916  22.2962  22.2983  22.2985  22.2991
    22.3017  22.3063  22.3067  22.3078  22.3102  22.3122  22.3166  22.7818
    22.7847  22.7901  22.7924  22.7937  22.7964  22.7992  22.7993  22.8014
    22.8044  22.8058  22.8071  22.8087  22.8111  22.8128  22.8146  22.8173
    22.8181  22.8231  22.8241  22.8246  22.8269  22.8293  22.8360  23.3161
    23.3168  23.3178  23.6529  23.6603  23.6613  23.6628  23.6642  23.6683
    23.6692  23.6724  23.6748  23.6767  23.6789  23.6812  23.6822  23.6844
    23.6865  23.6915  23.6937  23.6948  23.6955  23.6985  23.7023  23.7038
    23.7053  23.7079  24.7944  24.7987  24.7998  24.8039  24.8049  24.8068
    24.8117  24.8124  24.8169  24.8190  24.8205  24.8264  24.8283  24.8305
    24.8320  24.8356  24.8379  24.8431  24.8452  24.8485  24.8526  24.8532
    24.8572  24.8670  25.2789  25.2843  25.2902  25.2917  25.2926  25.2963
    25.2976  25.2983  25.3022  25.3062  25.3109  25.3129  25.3155  25.3192
    25.3229  25.3294  25.3336  25.3338  25.3344  25.3359  25.3394  25.3421
    25.3429  25.3504  25.5072  25.5078  25.5101  25.5130  25.5134  25.5181
    25.5193  25.5210  25.5248  25.5260  25.5297  25.5344  27.0771  27.0803
    27.0843  27.0873  27.0896  27.0915  27.0926  27.0987  27.1016  27.1021
    27.1054  27.1071  27.2985  27.2997  27.3006  27.3014  27.3370  27.3427
    27.3432  27.3450  27.3479  27.3496  27.3528  27.3551  27.3572  27.3608
    27.3615  27.3632  27.3653  27.3672  27.3693  27.3706  27.3742  27.3770
    27.3791  27.3793  27.3826  27.3843  27.3856  27.3897  28.0651  28.0701
    28.0744  28.0763  28.0778  28.0794  28.0908  28.0932  28.0975  28.0984
    28.1056  28.1092  28.8043  28.8087  28.8149  28.8179  28.8190  28.8220
    28.8259  28.8275  28.8320  28.8349  28.8365  28.8377  28.8406  28.8468
    28.8511  28.8521  28.8544  28.8563  28.8596  28.8616  28.8647  28.8662
    28.8708  28.8762  28.8781  28.8819  28.8882  28.8913  28.8950  28.8983
    28.9022  28.9087  28.9091  28.9110  28.9175  28.9214  29.1973  29.1991
    29.2036  29.2080  29.2091  29.2125  29.2186  29.2210  29.2225  29.2271
    29.2290  29.2323  29.2340  29.2363  29.2398  29.2433  29.2494  29.2505
    29.2537  29.2559  29.2590  29.2634  29.2686  29.2737  30.1086  30.1149
    30.1177  30.1237  30.1268  30.1288  30.1313  30.1342  30.1355  30.1384
    30.1395  30.1427  30.1480  30.1503  30.1538  30.1562  30.1605  30.1609
    30.1647  30.1668  30.1727  30.1767  30.1797  30.1837  30.3951  30.3967
    30.3973  30.3978  30.4015  30.4035  30.5845  30.5867  30.5885  30.5897
    30.5902  30.5921  30.5924  30.5939  30.5965  30.5979  30.5983  30.6004
    30.7422  30.7439  30.7457  30.7965  30.8006  30.8041  30.8057  30.8074
    30.8092  30.8121  30.8130  30.8170  30.8197  30.8216  30.8247  31.2249
    31.2330  31.2355  31.2397  31.2431  31.2454  31.2489  31.2501  31.2537
    31.2568  31.2601  31.2611  31.2673  31.2722  31.2735  31.2784  31.2792
    31.2806  31.2863  31.2883  31.2928  31.2951  31.2957  31.3062  31.5697
    31.5746  31.5778  31.5784  31.5795  31.5808  31.6170  31.6285  31.6294
    31.6338  31.6374  31.6467  31.6523  31.6544  31.6560  31.6618  31.6646
    31.6658  31.6727  31.6767  31.6792  31.6825  31.6852  31.6906  31.6929
    31.7004  31.7035  31.7077  31.7123  31.7200  31.8745  31.8781  31.8797
    31.8816  31.8894  31.8947  31.8981  31.9008  31.9065  31.9166  31.9178
    31.9255  32.1920  32.1939  32.2001  32.2035  32.2099  32.2147  32.2165
    32.2171  32.2203  32.2297  32.2351  32.2422  32.5671  32.5750  32.5839
    32.5868  32.5911  32.5959  32.6025  32.6058  32.6070  32.6158  32.6175
    32.6254  32.8242  32.8274  32.8291  32.8346  32.8376  32.8461  32.8480
    32.8496  32.8517  32.8543  32.8587  32.8640  32.8674  32.8699  32.8735
    32.8745  32.8804  32.8825  32.8837  32.8891  32.8900  32.8934  32.8967
    32.8981  32.9020  32.9051  32.9072  32.9091  32.9129  32.9173  32.9231
    32.9254  32.9281  32.9328  32.9357  32.9382  33.1341  33.1373  33.1385
    33.1444  33.1466  33.1508  33.1548  33.1588  33.1633  33.1654  33.1667
    33.1715  33.1740  33.1772  33.1783  33.1847  33.1859  33.1896  33.1938
    33.1976  33.1989  33.2043  33.2065  33.2139  33.2261  33.2284  33.2301
    33.2309  33.2332  33.2381  34.1200  34.1411  34.1423  34.1508  34.1590
    34.1808  34.3791  34.3935  34.3957  34.3982  34.4048  34.4117  34.4124
    34.4152  34.4180  34.4224  34.4231  34.4320  34.4414  34.4445  34.4489
    34.4515  34.4589  34.4606  34.4636  34.4686  34.4720  34.4765  34.4808
    34.4872  34.4939  34.4971  34.5070  34.5094  34.5162  34.5191  34.5277
    34.5310  34.6009  34.6178  34.6204  34.6304  34.6328  34.6348  34.6366
    34.6409  34.6431  34.6468  34.6511  34.6524  34.6567  34.6604  34.6643
    34.6658  34.6700  34.6709  34.6751  34.6788  34.6808  34.6811  34.6833
    34.6836  34.6899  34.6917  34.6923  34.6939  34.6952  34.6981  34.7021
    34.7097  34.7107  34.7115  34.7240  34.7259  35.0045  35.0209  35.0216
    35.0225  35.0273  35.0311  35.0371  35.0463  35.0480  35.0511  35.0570
    35.0662  35.0680  35.0733  35.0761  35.0803  35.0849  35.0895  35.0936
    35.0987  35.1023  35.1090  35.1120  35.1187  35.4533  35.4615  35.4686
    35.4724  35.4727  35.4759  35.4793  35.4823  35.4901  35.4930  35.4946
    35.4964  35.5045  35.5083  35.5136  35.5169  35.5226  35.5230  35.5289
    35.5329  35.5340  35.5409  35.5420  35.5504  35.6034  35.6140  35.6188
    35.6257  35.6262  35.6303  35.6329  35.6369  35.6390  35.6402  35.6437
    35.6468  35.6514  35.6559  35.6587  35.6640  35.6651  35.6680  35.6710
    35.6761  35.6815  35.6898  35.6914  35.6942  35.7919  35.8007  35.8087
    35.8102  35.8173  35.8216  35.8272  35.8293  35.8329  35.8361  35.8419
    35.8444  35.8471  35.8532  35.8573  35.8598  35.8604  35.8638  35.8678
    35.8707  35.8794  35.8819  35.8852  35.8928  35.8996  35.9068  35.9112
    35.9150  35.9191  35.9216  35.9244  35.9273  35.9289  35.9327  35.9333
    35.9366  35.9411  35.9451  35.9508  35.9599  35.9646  35.9667  35.9723
    35.9742  35.9758  35.9813  35.9830  35.9850  35.9913  35.9937  35.9992
    36.0033  36.0051  36.0081  36.0182  36.0202  36.0246  36.0260  36.0316
    36.0335  36.5438  36.5462  36.5534  36.5554  36.5597  36.5634  36.5664
    36.5681  36.5722  36.5770  36.5774  36.5811  36.5850  36.5886  36.5927
    36.5958  36.5971  36.5997  36.6009  36.6025  36.6037  36.6093  36.6098
    36.6138  36.6191  36.6202  36.6288  36.6330  36.8546  36.8589  36.8606
    36.8622  36.8671  36.8685  36.8694  36.8728  36.8750  36.8772  36.8789
    36.8812  36.8832  36.8850  36.8877  36.8903  36.8947  36.8959  36.8978
    36.9009  36.9024  36.9035  36.9068  36.9150  37.2439  37.3847  37.3882
    37.3991  37.4068  37.4141  37.4213  37.4292  37.4349  37.4392  37.4432
    37.4504  37.4547  37.6488  37.6562  37.6636  37.6659  37.6695  37.6701
    37.6724  37.6775  37.6788  37.6813  37.6835  37.6858  37.6915  37.6919
    37.6972  37.6996  37.7016  37.7085  37.7107  37.7114  37.7160  37.7188
    37.7228  37.7234  37.7249  37.7271  37.7282  37.7327  37.7365  37.7414
    37.7435  37.7486  37.7539  37.7577  37.7680  37.7743  37.9905  38.0001
    38.0032  38.0080  38.0091  38.0119  38.0821  38.0857  38.0989  38.1011
    38.1029  38.1063  38.1149  38.1190  38.1228  38.1275  38.1387  38.1434
    38.2345  38.2361  38.2466  38.2574  38.2604  38.2657  38.2737  38.2750
    38.2813  38.2825  38.2917  38.2980  38.3058  38.3134  39.0993  39.1096
    39.1156  39.1167  39.1219  39.1294  39.1326  39.1334  39.1347  39.1375
    39.1421  39.1452  39.1509  39.1550  39.1589  39.1603  39.1625  39.1656
    39.1711  39.1745

     the Fermi energy is    20.1193 ev

!    total energy              = -131079.35216480 Ry
     Harris-Foulkes estimate   = -131079.35216476 Ry
     estimated scf accuracy    <       0.00000004 Ry

     total all-electron energy =  -2583566.182018 Ry

     The total energy is the sum of the following terms:

     one-electron contribution =  -19168.65086600 Ry
     hartree contribution      =   13045.40907786 Ry
     xc contribution           =   -7899.43725237 Ry
     ewald contribution        =  -51717.60081101 Ry
     one-center paw contrib.   =  -65339.04174406 Ry
     smearing contrib. (-TS)   =      -0.03056922 Ry

     convergence has been achieved in  16 iterations

     Forces acting on atoms (Ry/au):

     atom    1 type  1   force =    -0.00744073    0.00287124    0.00267270
     atom    2 type  1   force =     0.01303348    0.00398945    0.01055825
     atom    3 type  1   force =     0.00603659    0.01925299   -0.00476578
     atom    4 type  1   force =     0.00567976    0.00165504    0.00103544
     atom    5 type  1   force =     0.00076120   -0.00228573   -0.00120045
     atom    6 type  1   force =    -0.00077513    0.00636524   -0.00214434
     atom    7 type  1   force =    -0.00443605   -0.00399827    0.00299761
     atom    8 type  1   force =     0.00855305   -0.00062725    0.01783043
     atom    9 type  1   force =     0.00137790    0.00218370   -0.01822372
     atom   10 type  1   force =    -0.00203298    0.00611357   -0.00857240
     atom   11 type  1   force =     0.00013122    0.00998357    0.00554536
     atom   12 type  1   force =     0.01002647   -0.00853392    0.01655862
     atom   13 type  1   force =    -0.00186240    0.00390727   -0.00081273
     atom   14 type  1   force =     0.00525681    0.00754000   -0.00601138
     atom   15 type  1   force =     0.00202519   -0.00215891   -0.00347853
     atom   16 type  1   force =    -0.01102754   -0.00927351   -0.01031748
     atom   17 type  1   force =    -0.01002834   -0.00347036    0.00614248
     atom   18 type  1   force =     0.00047993    0.00288504   -0.00567630
     atom   19 type  1   force =    -0.00872098   -0.00648846    0.00521709
     atom   20 type  1   force =     0.00967093   -0.01701919    0.00292266
     atom   21 type  1   force =    -0.00018935   -0.00746544   -0.02269290
     atom   22 type  1   force =     0.00193070    0.00739347    0.00797443
     atom   23 type  1   force =     0.01540656   -0.02046186    0.01202738
     atom   24 type  1   force =    -0.00148118    0.01595429    0.00362353
     atom   25 type  1   force =     0.01596174   -0.01068896   -0.01534326
     atom   26 type  1   force =    -0.00011490   -0.00836109    0.01723338
     atom   27 type  1   force =    -0.00210373   -0.00398925   -0.00366105
     atom   28 type  1   force =     0.00425894    0.01423347    0.00018400
     atom   29 type  1   force =     0.00259518   -0.00475570   -0.00154730
     atom   30 type  1   force =    -0.00298973    0.00277787    0.01620967
     atom   31 type  1   force =     0.00429223    0.00655173   -0.00118784
     atom   32 type  1   force =     0.00222076    0.00136838   -0.01218276
     atom   33 type  1   force =     0.00401167    0.00640878   -0.01460126
     atom   34 type  1   force =     0.00285304   -0.01115454   -0.00382567
     atom   35 type  1   force =    -0.00513118    0.01605055    0.00932284
     atom   36 type  1   force =    -0.00899565    0.00042223    0.02159911
     atom   37 type  1   force =     0.00831254    0.01417687   -0.00766777
     atom   38 type  1   force =    -0.00358818   -0.01132778    0.00256584
     atom   39 type  1   force =     0.00013422    0.00835575   -0.02009490
     atom   40 type  1   force =     0.00121518   -0.00429269    0.00045720
     atom   41 type  1   force =    -0.01165733    0.00459092    0.00059983
     atom   42 type  1   force =     0.01535626   -0.00294621   -0.00260613
     atom   43 type  1   force =    -0.00797355   -0.00226621   -0.00914107
     atom   44 type  1   force =    -0.00480653    0.00175422    0.00702515
     atom   45 type  1   force =    -0.00311637   -0.01285782   -0.00534496
     atom   46 type  1   force =    -0.00598802    0.00174787    0.00457227
     atom   47 type  1   force =     0.00352933   -0.00281588    0.01460541
     atom   48 type  1   force =    -0.00543655    0.00293859    0.00061946
     atom   49 type  1   force =    -0.00213105    0.00349913   -0.00944176
     atom   50 type  1   force =    -0.00146140   -0.01640659   -0.01481655
     atom   51 type  1   force =    -0.01270237   -0.00406490   -0.01992449
     atom   52 type  1   force =    -0.01319153   -0.00286484    0.01742913
     atom   53 type  1   force =    -0.00591311    0.00461224   -0.00710794
     atom   54 type  1   force =    -0.00320720    0.01452550    0.01770826
     atom   55 type  1   force =    -0.00900763    0.00163694    0.00333070
     atom   56 type  1   force =     0.00682301   -0.00386010    0.00438511
     atom   57 type  1   force =    -0.00837359    0.00528621   -0.01227451
     atom   58 type  1   force =    -0.00483513    0.00119345   -0.00673080
     atom   59 type  1   force =     0.00201308    0.01035829    0.00735489
     atom   60 type  1   force =     0.01138465   -0.00199639    0.00682950
     atom   61 type  1   force =    -0.01455332   -0.01385478    0.00056787
     atom   62 type  1   force =    -0.00717586    0.00683426   -0.01195457
     atom   63 type  1   force =     0.00617478    0.00137914   -0.00443937
     atom   64 type  1   force =    -0.00018189   -0.00382838    0.00984443
     atom   65 type  1   force =    -0.00226719    0.00732938   -0.00313861
     atom   66 type  1   force =     0.01023993    0.01099134   -0.01955039
     atom   67 type  1   force =    -0.00023913   -0.02086741    0.00730122
     atom   68 type  1   force =    -0.02150786    0.00903451   -0.00100679
     atom   69 type  1   force =     0.00186037   -0.01162033   -0.01276091
     atom   70 type  1   force =     0.00078298    0.00629352    0.00636166
     atom   71 type  1   force =     0.00256233   -0.01114471   -0.00468346
     atom   72 type  1   force =    -0.00482777    0.01528081    0.00359685
     atom   73 type  1   force =    -0.01070695    0.00105507   -0.00002347
     atom   74 type  1   force =    -0.01162215    0.00365354    0.01209799
     atom   75 type  1   force =    -0.00024246    0.01806916   -0.00061623
     atom   76 type  1   force =     0.00535139    0.00121759   -0.00808683
     atom   77 type  1   force =     0.00471826    0.00314830    0.00964505
     atom   78 type  1   force =     0.00770375   -0.00842447   -0.01890315
     atom   79 type  1   force =    -0.00754211    0.00090527   -0.00216487
     atom   80 type  1   force =    -0.00265806   -0.01117811    0.00942995
     atom   81 type  1   force =    -0.00310218   -0.00245386    0.00035076
     atom   82 type  1   force =    -0.00783201   -0.00109851   -0.00845175
     atom   83 type  1   force =    -0.01944674    0.00928556    0.00567083
     atom   84 type  1   force =     0.01278521   -0.02068778    0.01552508
     atom   85 type  1   force =     0.00629898    0.00064211   -0.00484856
     atom   86 type  1   force =    -0.00968293   -0.00558435    0.00255108
     atom   87 type  1   force =    -0.00284302    0.00371943   -0.00758394
     atom   88 type  1   force =    -0.00310513   -0.00166338   -0.00548994
     atom   89 type  1   force =    -0.00198927   -0.00880352    0.00622933
     atom   90 type  1   force =    -0.00072800    0.00133465   -0.00073163
     atom   91 type  1   force =    -0.00434052   -0.01724094   -0.00726458
     atom   92 type  1   force =     0.00562547    0.00017937   -0.00335368
     atom   93 type  1   force =    -0.00275932    0.00695630   -0.00504479
     atom   94 type  1   force =    -0.01062629    0.00505038    0.01268175
     atom   95 type  1   force =     0.00415983    0.01287763    0.00928152
     atom   96 type  1   force =    -0.00111564   -0.00997742   -0.00620432
     atom   97 type  1   force =    -0.00176778    0.00791765   -0.01795762
     atom   98 type  1   force =    -0.00790642   -0.01017874   -0.01331365
     atom   99 type  1   force =     0.00169000    0.01371354    0.00079654
     atom  100 type  1   force =     0.00150361   -0.00908600    0.00315691
     atom  101 type  1   force =    -0.00027045   -0.00243138    0.00011022
     atom  102 type  1   force =    -0.00274604    0.00338600   -0.00028173
     atom  103 type  1   force =    -0.00185629   -0.00000570    0.00729846
     atom  104 type  1   force =    -0.00542231   -0.00346620    0.00448352
     atom  105 type  1   force =     0.00678429    0.00927744    0.00578021
     atom  106 type  1   force =    -0.01096276   -0.00014043   -0.00100370
     atom  107 type  1   force =    -0.02070586   -0.00934426   -0.00157210
     atom  108 type  1   force =     0.01755547   -0.00053338   -0.01350292
     atom  109 type  1   force =     0.01261478   -0.00391573    0.00639913
     atom  110 type  1   force =    -0.01349534   -0.00066545   -0.01743924
     atom  111 type  1   force =     0.00955645   -0.00154656    0.00300057
     atom  112 type  1   force =    -0.00429212    0.00821064    0.00960757
     atom  113 type  1   force =     0.00282557    0.01489386   -0.00525205
     atom  114 type  1   force =     0.00191628   -0.01450999    0.00303971
     atom  115 type  1   force =    -0.00004866    0.02231561   -0.00244849
     atom  116 type  1   force =     0.01366386    0.00233561    0.01180633
     atom  117 type  1   force =     0.01652949   -0.00152722    0.01022810
     atom  118 type  1   force =    -0.00671040    0.00913053   -0.00481976
     atom  119 type  1   force =     0.00955718   -0.00320147   -0.00694379
     atom  120 type  1   force =    -0.00575343    0.00169123    0.00874781
     atom  121 type  1   force =     0.00014442   -0.00453382   -0.00448506
     atom  122 type  1   force =     0.00159958   -0.00134624    0.00687852
     atom  123 type  1   force =    -0.01267006   -0.00000957    0.00693728
     atom  124 type  1   force =     0.00579147   -0.00509804    0.00032949
     atom  125 type  1   force =     0.00381545    0.00027300   -0.00215203
     atom  126 type  1   force =    -0.00367192   -0.01353669    0.00286144
     atom  127 type  1   force =     0.00447645    0.00856176    0.01596672
     atom  128 type  1   force =     0.00226991   -0.00079483    0.01091433
     atom  129 type  1   force =    -0.00364673   -0.01446850    0.00415628
     atom  130 type  1   force =     0.01514200    0.01234349    0.00193327
     atom  131 type  1   force =    -0.01034356   -0.00347736    0.01225409
     atom  132 type  1   force =     0.00507810   -0.00865948    0.00389734
     atom  133 type  1   force =     0.01029935   -0.00034865    0.00572646
     atom  134 type  1   force =    -0.00023149    0.00235643   -0.01240101
     atom  135 type  1   force =     0.01217517   -0.02087755   -0.01134612
     atom  136 type  1   force =    -0.00007434    0.00920825   -0.00599826
     atom  137 type  1   force =    -0.00269211   -0.00200286    0.01730192
     atom  138 type  1   force =    -0.00112657    0.00067617    0.00523111
     atom  139 type  1   force =    -0.00598365    0.00492101   -0.01232567
     atom  140 type  1   force =    -0.00221920   -0.00724560    0.01194281
     atom  141 type  1   force =     0.00756938    0.00945860   -0.00052127
     atom  142 type  1   force =    -0.01931066   -0.00416498    0.00347612
     atom  143 type  1   force =     0.00117526    0.01211345   -0.01392225
     atom  144 type  1   force =    -0.00976791    0.00260750   -0.00478491
     atom  145 type  1   force =    -0.00624014   -0.00328776   -0.01553516
     atom  146 type  1   force =     0.01273691    0.01160130   -0.00469792
     atom  147 type  1   force =     0.01359990   -0.00014663    0.00217997
     atom  148 type  1   force =     0.00305040   -0.00138429    0.01376894
     atom  149 type  1   force =     0.00274807   -0.00363834    0.01563266
     atom  150 type  1   force =     0.00033295   -0.00798219   -0.00164537
     atom  151 type  1   force =     0.00152134    0.00347909   -0.00353449
     atom  152 type  1   force =    -0.00024017    0.00041390   -0.00605805
     atom  153 type  1   force =     0.00063096    0.00645645    0.00478384
     atom  154 type  1   force =    -0.01168645    0.01585376    0.00033060
     atom  155 type  1   force =    -0.01043745   -0.00368840   -0.00397131
     atom  156 type  1   force =     0.01786438   -0.00016312   -0.00420277
     atom  157 type  1   force =     0.00293337   -0.01097108    0.00579152
     atom  158 type  1   force =    -0.01077392    0.00803316    0.00345647
     atom  159 type  1   force =    -0.00867593    0.01192857   -0.00628178
     atom  160 type  1   force =     0.00792559   -0.00301561   -0.01260373
     atom  161 type  1   force =     0.00047120    0.00177823   -0.00063529
     atom  162 type  1   force =    -0.01094874   -0.00018646   -0.00586178
     atom  163 type  1   force =    -0.00907710   -0.00786095    0.00561670
     atom  164 type  1   force =     0.01422339   -0.01086481    0.00676975
     atom  165 type  1   force =     0.00462536   -0.00517163   -0.00329010
     atom  166 type  1   force =    -0.00495990    0.00533643    0.01426179
     atom  167 type  1   force =    -0.00393597    0.00189356   -0.00269329
     atom  168 type  1   force =     0.00403008    0.00591360   -0.00108868
     atom  169 type  1   force =     0.01278052   -0.00333046   -0.00352919
     atom  170 type  1   force =    -0.00836597   -0.00104922    0.00947832
     atom  171 type  1   force =    -0.00449411   -0.00592140   -0.00128321
     atom  172 type  1   force =     0.01936334    0.01308905    0.01159998
     atom  173 type  1   force =     0.00529926   -0.00319030    0.00583129
     atom  174 type  1   force =    -0.00716716    0.00382552    0.00049520
     atom  175 type  1   force =     0.00723904    0.00049998   -0.00628512
     atom  176 type  1   force =     0.00999011   -0.01339768    0.00631101
     atom  177 type  1   force =    -0.01530572    0.00999419    0.00257432
     atom  178 type  1   force =    -0.00453074   -0.00613658    0.00485458
     atom  179 type  1   force =     0.00399723    0.00451260    0.01076734
     atom  180 type  1   force =    -0.00290366   -0.00908824   -0.01611823
     atom  181 type  1   force =     0.00070024   -0.00532595    0.00443946
     atom  182 type  1   force =     0.01475822    0.01473949   -0.00042945
     atom  183 type  1   force =    -0.01696056    0.00079698   -0.01112923
     atom  184 type  1   force =     0.00244898   -0.00279058   -0.00098949
     atom  185 type  1   force =     0.00412294   -0.00025673   -0.00518453
     atom  186 type  1   force =     0.00485607    0.00934375   -0.01228460
     atom  187 type  1   force =    -0.02124244   -0.00927017    0.00460713
     atom  188 type  1   force =     0.00407239   -0.00157403   -0.00431029
     atom  189 type  1   force =     0.00362195    0.00531677   -0.01790536
     atom  190 type  1   force =    -0.01388046   -0.01154632    0.00363920
     atom  191 type  1   force =     0.01994873   -0.00829169    0.00099539
     atom  192 type  1   force =    -0.00465667    0.00224567    0.00226951
     atom  193 type  1   force =     0.00440944    0.00319311   -0.00094507
     atom  194 type  1   force =     0.01376202   -0.00312456   -0.00135604
     atom  195 type  1   force =     0.01280095   -0.00328578   -0.01528436
     atom  196 type  1   force =     0.00025643   -0.00145984    0.00263272
     atom  197 type  1   force =    -0.01128757   -0.00963501    0.01677734
     atom  198 type  1   force =     0.00164982    0.00842816   -0.00044013
     atom  199 type  1   force =    -0.00482185    0.00360321    0.00763556
     atom  200 type  1   force =     0.00468507    0.00853692   -0.00780652
     atom  201 type  1   force =     0.00068183   -0.00880415   -0.00466892
     atom  202 type  1   force =     0.00308472    0.00442141   -0.00426415
     atom  203 type  1   force =    -0.01007713   -0.00530367    0.00651024
     atom  204 type  1   force =     0.00448495   -0.00881364   -0.00224049
     atom  205 type  1   force =     0.00582502    0.00281603    0.00405733
     atom  206 type  1   force =     0.01407479   -0.00329114   -0.00569210
     atom  207 type  1   force =     0.00068063    0.01499407    0.00270690
     atom  208 type  1   force =     0.00006725   -0.01295609   -0.00374038
     atom  209 type  1   force =    -0.00330212   -0.00072216    0.00742544
     atom  210 type  1   force =    -0.00707185   -0.00669861   -0.00365531
     atom  211 type  1   force =    -0.00542006    0.00410228    0.01289563
     atom  212 type  1   force =    -0.00007762   -0.00950733   -0.00958143
     atom  213 type  1   force =     0.00252771    0.00827246    0.01260077
     atom  214 type  1   force =    -0.01567720    0.00148741   -0.01340113
     atom  215 type  1   force =    -0.01470083   -0.01593794   -0.00073212
     atom  216 type  1   force =     0.00046235   -0.01136031   -0.00010705
     atom  217 type  1   force =     0.01495182   -0.00535303   -0.01738421
     atom  218 type  1   force =    -0.01233717    0.01507183   -0.00086299
     atom  219 type  1   force =    -0.00739349   -0.00937260    0.00064638
     atom  220 type  1   force =     0.00435582    0.00805161    0.01831454
     atom  221 type  1   force =     0.01295919    0.01632499    0.00954169
     atom  222 type  1   force =    -0.00565609    0.00361931    0.00335678
     atom  223 type  1   force =    -0.01086938    0.01428616    0.00450219
     atom  224 type  1   force =     0.00784888    0.00447704   -0.00229937
     atom  225 type  1   force =     0.00443227   -0.00285968    0.00580854
     atom  226 type  1   force =    -0.00458465    0.00136605   -0.00662198
     atom  227 type  1   force =    -0.00530101   -0.00804648    0.00778705
     atom  228 type  1   force =     0.00060545    0.01224857   -0.01527768
     atom  229 type  1   force =     0.01128088   -0.00033661    0.00597800
     atom  230 type  1   force =     0.01590932   -0.00334205   -0.00336270
     atom  231 type  1   force =    -0.00939200    0.00105033    0.02056670
     atom  232 type  1   force =     0.00115795   -0.01151344   -0.00995377
     atom  233 type  1   force =     0.01266295    0.00212064   -0.01096434
     atom  234 type  1   force =     0.00666964   -0.01655119    0.00019318
     atom  235 type  1   force =    -0.01035605    0.00033521   -0.00032678
     atom  236 type  1   force =     0.00471437   -0.01524456    0.00999370
     atom  237 type  1   force =     0.00542910   -0.00739157   -0.00150427
     atom  238 type  1   force =     0.00336117    0.00771332   -0.00319754
     atom  239 type  1   force =     0.00163289    0.00767486   -0.00887588
     atom  240 type  1   force =    -0.00870351   -0.00211524    0.00061488
     atom  241 type  1   force =     0.00776946    0.00356829    0.00037473
     atom  242 type  1   force =     0.00216775   -0.00156378   -0.00534568
     atom  243 type  1   force =     0.01066461    0.00202688    0.00026473
     atom  244 type  1   force =    -0.01342733   -0.00827265    0.01485889
     atom  245 type  1   force =    -0.01128625    0.00500077   -0.00253488
     atom  246 type  1   force =     0.00160479   -0.01326218   -0.00120408
     atom  247 type  1   force =     0.00412472    0.01474491   -0.00052700
     atom  248 type  1   force =     0.00036972    0.00747740    0.00503814
     atom  249 type  1   force =     0.00803050    0.01524875    0.00380660
     atom  250 type  1   force =    -0.01641013    0.00767480   -0.01682840
     atom  251 type  1   force =     0.00658533   -0.01329262    0.01020365
     atom  252 type  1   force =     0.01351261    0.00989363   -0.01199244
     atom  253 type  1   force =    -0.00070708   -0.00092493    0.01577367
     atom  254 type  1   force =    -0.00379295   -0.00421060   -0.00059118
     atom  255 type  1   force =     0.01328754    0.00163977   -0.00790215
     atom  256 type  1   force =     0.00186482   -0.00567465   -0.00066593

     Total force =     0.236782     Total SCF correction =     0.001669


     entering subroutine stress ...

          total   stress  (Ry/bohr**3)                   (kbar)     P=   83.61
   0.00056822  -0.00000036  -0.00000004         83.59     -0.05     -0.01
  -0.00000036   0.00056849  -0.00000072         -0.05     83.63     -0.11
  -0.00000004  -0.00000072   0.00056846         -0.01     -0.11     83.62


     Writing output data file Pd.256.save
 
     init_run     :     28.83s CPU     29.63s WALL (       1 calls)
     electrons    :   2319.18s CPU   2349.37s WALL (       1 calls)
     forces       :     53.92s CPU     54.24s WALL (       1 calls)
     stress       :    239.30s CPU    239.58s WALL (       1 calls)

     Called by init_run:
     wfcinit      :     27.10s CPU     27.63s WALL (       1 calls)
     potinit      :      0.28s CPU      0.32s WALL (       1 calls)

     Called by electrons:
     c_bands      :   2123.87s CPU   2143.53s WALL (      17 calls)
     sum_band     :    165.44s CPU    167.28s WALL (      17 calls)
     v_of_rho     :      1.06s CPU      1.08s WALL (      17 calls)
     newd         :     17.81s CPU     17.90s WALL (      17 calls)
     mix_rho      :      1.96s CPU      1.96s WALL (      17 calls)

     Called by c_bands:
     init_us_2    :      1.44s CPU      1.49s WALL (      35 calls)
     regterg      :   2118.83s CPU   2137.11s WALL (      17 calls)

     Called by *egterg:
     h_psi        :    597.03s CPU    601.36s WALL (      85 calls)
     s_psi        :    121.30s CPU    123.72s WALL (      85 calls)
     g_psi        :      0.56s CPU      0.57s WALL (      67 calls)
     rdiaghg      :    983.61s CPU    987.45s WALL (      83 calls)

     Called by h_psi:
     add_vuspsi   :    122.51s CPU    125.00s WALL (      85 calls)

     General routines
     calbec       :    220.87s CPU    221.14s WALL (     107 calls)
     fft          :      9.98s CPU     10.02s WALL (     248 calls)
     fftw         :    408.41s CPU    410.66s WALL (  145599 calls)
     davcio       :      0.06s CPU      4.17s WALL (       1 calls)
 
     Parallel routines
     fft_scatter  :    327.38s CPU    329.36s WALL (  145847 calls)
 
     PAW routines
     PAW_pot      :      3.72s CPU      3.75s WALL (      17 calls)
     PAW_ddot     :      1.76s CPU      1.76s WALL (     437 calls)
 
     PWSCF        : 44m 3.63s CPU    44m41.38s WALL

 
   This run was terminated on:  13:11:16  15Jul2014            

=------------------------------------------------------------------------------=
   JOB DONE.
=------------------------------------------------------------------------------=
Application 9246404 resources: utime ~700688s, stime ~6245s, Rss ~1179896, inblocks ~3713557, outblocks ~116198168
