
 ========================   JOB MAP   ========================

 Data for node: bb2a3c23	Num procs: 8
 	Process OMPI jobid: [32274,1] Process rank: 0
 	Process OMPI jobid: [32274,1] Process rank: 4
 	Process OMPI jobid: [32274,1] Process rank: 8
 	Process OMPI jobid: [32274,1] Process rank: 12
 	Process OMPI jobid: [32274,1] Process rank: 16
 	Process OMPI jobid: [32274,1] Process rank: 20
 	Process OMPI jobid: [32274,1] Process rank: 24
 	Process OMPI jobid: [32274,1] Process rank: 28

 Data for node: bb2a3c22	Num procs: 8
 	Process OMPI jobid: [32274,1] Process rank: 1
 	Process OMPI jobid: [32274,1] Process rank: 5
 	Process OMPI jobid: [32274,1] Process rank: 9
 	Process OMPI jobid: [32274,1] Process rank: 13
 	Process OMPI jobid: [32274,1] Process rank: 17
 	Process OMPI jobid: [32274,1] Process rank: 21
 	Process OMPI jobid: [32274,1] Process rank: 25
 	Process OMPI jobid: [32274,1] Process rank: 29

 Data for node: bb2a3c20	Num procs: 8
 	Process OMPI jobid: [32274,1] Process rank: 2
 	Process OMPI jobid: [32274,1] Process rank: 6
 	Process OMPI jobid: [32274,1] Process rank: 10
 	Process OMPI jobid: [32274,1] Process rank: 14
 	Process OMPI jobid: [32274,1] Process rank: 18
 	Process OMPI jobid: [32274,1] Process rank: 22
 	Process OMPI jobid: [32274,1] Process rank: 26
 	Process OMPI jobid: [32274,1] Process rank: 30

 Data for node: bb2a3c17	Num procs: 8
 	Process OMPI jobid: [32274,1] Process rank: 3
 	Process OMPI jobid: [32274,1] Process rank: 7
 	Process OMPI jobid: [32274,1] Process rank: 11
 	Process OMPI jobid: [32274,1] Process rank: 15
 	Process OMPI jobid: [32274,1] Process rank: 19
 	Process OMPI jobid: [32274,1] Process rank: 23
 	Process OMPI jobid: [32274,1] Process rank: 27
 	Process OMPI jobid: [32274,1] Process rank: 31

 =============================================================

     Program PWSCF v.5.0.2 (svn rev. 9392) starts on 28Sep2013 at  0:38:11 

     This program is part of the open-source Quantum ESPRESSO suite
     for quantum simulation of materials; please cite
         "P. Giannozzi et al., J. Phys.:Condens. Matter 21 395502 (2009);
          URL http://www.quantum-espresso.org", 
     in publications or presentations arising from this work. More details at
     http://www.quantum-espresso.org/quote.php

     Parallel version (MPI), running on    32 processors
     R & G space division:  proc/nbgrp/npool/nimage =      32

     Current dimensions of program PWSCF are:
     Max number of different atomic species (ntypx) = 10
     Max number of k-points (npk) =  40000
     Max angular momentum in pseudopotentials (lmaxx) =  3
     Reading input from /gpfs/bb/bxp912/pwscf/input_4e765f9bd5fbb_8323.in
               file Al.pbe-n-kjpaw_psl.0.1.UPF: wavefunction(s)  3S renormalized

     Subspace diagonalization in iterative solution of the eigenvalue problem:
     a serial algorithm will be used

     Found symmetry operation: I + (  0.1250  0.1250  0.0000)
     This is a supercell, fractional translations are disabled
 
     Parallelization info
     --------------------
     sticks:   dense  smooth     PW     G-vecs:    dense   smooth      PW
     Min         487     328     84                45811    25286    3302
     Max         488     329     85                45814    25323    3309
     Sum       15613   10501   2709              1466001   809911  105759
 


     bravais-lattice index     =           14
     lattice parameter (alat)  =      30.7000  a.u.
     unit-cell volume          =   28934.4430 (a.u.)^3
     number of atoms/cell      =          256
     number of atomic types    =            1
     number of electrons       =       768.00
     number of Kohn-Sham states=          461
     kinetic-energy cutoff     =      35.0000  Ry
     charge density cutoff     =     208.0000  Ry
     convergence threshold     =      1.0E-07
     mixing beta               =       0.7000
     number of iterations used =            8  plain     mixing
     Exchange-correlation      =  SLA  PW   PBX  PBC ( 1 4 3 4 0)
     EXX-fraction              =        0.00
     nstep                     =          200


     celldm(1)=  30.700000  celldm(2)=   1.000000  celldm(3)=   1.000000
     celldm(4)=   0.000000  celldm(5)=   0.000000  celldm(6)=   0.000000

     crystal axes: (cart. coord. in units of alat)
               a(1) = (   1.000000   0.000000   0.000000 )  
               a(2) = (   0.000000   1.000000   0.000000 )  
               a(3) = (   0.000000   0.000000   1.000000 )  

     reciprocal axes: (cart. coord. in units 2 pi/alat)
               b(1) = (  1.000000  0.000000  0.000000 )  
               b(2) = (  0.000000  1.000000  0.000000 )  
               b(3) = (  0.000000  0.000000  1.000000 )  


     PseudoPot. # 1 for Al read from file:
     /gpfs/bb/bxp912/pseudopotentials/Al.pbe-n-kjpaw_psl.0.1.UPF
     MD5 check sum: c290c600b2b3f4e95cb15d62bc64d19d
     Pseudo is Projector augmented-wave + core cor, Zval =  3.0
     Generated using "atomic" code by A. Dal Corso  v.5.0.2 svn rev. 9392
     Shape of augmentation charge: PSQ
     Using radial grid of 1135 points,  4 beta functions with: 
                l(1) =   0
                l(2) =   0
                l(3) =   1
                l(4) =   1
     Q(r) pseudized with 0 coefficients 


     atomic species   valence    mass     pseudopotential
        N              3.00    26.98154     Al( 1.00)

     48 Sym. Ops., with inversion, found



   Cartesian axes

     site n.     atom                  positions (alat units)
         1           N   tau(   1) = (   0.0000000   0.0000000   0.0000000  )
         2           N   tau(   2) = (   0.1250000   0.1250000   0.0000000  )
         3           N   tau(   3) = (   0.1250000   0.0000000   0.1250000  )
         4           N   tau(   4) = (   0.0000000   0.1250000   0.1250000  )
         5           N   tau(   5) = (   0.2500000   0.0000000   0.0000000  )
         6           N   tau(   6) = (   0.2500000   0.1250000   0.1250000  )
         7           N   tau(   7) = (   0.3750000   0.1250000   0.0000000  )
         8           N   tau(   8) = (   0.3750000   0.0000000   0.1250000  )
         9           N   tau(   9) = (   0.0000000   0.0000000   0.2500000  )
        10           N   tau(  10) = (   0.1250000   0.1250000   0.2500000  )
        11           N   tau(  11) = (   0.1250000   0.0000000   0.3750000  )
        12           N   tau(  12) = (   0.0000000   0.1250000   0.3750000  )
        13           N   tau(  13) = (   0.0000000   0.0000000   0.5000000  )
        14           N   tau(  14) = (   0.1250000   0.1250000   0.5000000  )
        15           N   tau(  15) = (   0.1250000   0.0000000   0.6250000  )
        16           N   tau(  16) = (   0.0000000   0.1250000   0.6250000  )
        17           N   tau(  17) = (   0.0000000   0.0000000   0.7500000  )
        18           N   tau(  18) = (   0.1250000   0.1250000   0.7500000  )
        19           N   tau(  19) = (   0.1250000   0.0000000   0.8750000  )
        20           N   tau(  20) = (   0.0000000   0.1250000   0.8750000  )
        21           N   tau(  21) = (   0.0000000   0.2500000   0.0000000  )
        22           N   tau(  22) = (   0.1250000   0.3750000   0.0000000  )
        23           N   tau(  23) = (   0.1250000   0.2500000   0.1250000  )
        24           N   tau(  24) = (   0.0000000   0.3750000   0.1250000  )
        25           N   tau(  25) = (   0.0000000   0.2500000   0.2500000  )
        26           N   tau(  26) = (   0.1250000   0.3750000   0.2500000  )
        27           N   tau(  27) = (   0.1250000   0.2500000   0.3750000  )
        28           N   tau(  28) = (   0.0000000   0.3750000   0.3750000  )
        29           N   tau(  29) = (   0.0000000   0.2500000   0.5000000  )
        30           N   tau(  30) = (   0.1250000   0.3750000   0.5000000  )
        31           N   tau(  31) = (   0.1250000   0.2500000   0.6250000  )
        32           N   tau(  32) = (   0.0000000   0.3750000   0.6250000  )
        33           N   tau(  33) = (   0.0000000   0.2500000   0.7500000  )
        34           N   tau(  34) = (   0.1250000   0.3750000   0.7500000  )
        35           N   tau(  35) = (   0.1250000   0.2500000   0.8750000  )
        36           N   tau(  36) = (   0.0000000   0.3750000   0.8750000  )
        37           N   tau(  37) = (   0.0000000   0.5000000   0.0000000  )
        38           N   tau(  38) = (   0.1250000   0.6250000   0.0000000  )
        39           N   tau(  39) = (   0.1250000   0.5000000   0.1250000  )
        40           N   tau(  40) = (   0.0000000   0.6250000   0.1250000  )
        41           N   tau(  41) = (   0.0000000   0.5000000   0.2500000  )
        42           N   tau(  42) = (   0.1250000   0.6250000   0.2500000  )
        43           N   tau(  43) = (   0.1250000   0.5000000   0.3750000  )
        44           N   tau(  44) = (   0.0000000   0.6250000   0.3750000  )
        45           N   tau(  45) = (   0.0000000   0.5000000   0.5000000  )
        46           N   tau(  46) = (   0.1250000   0.6250000   0.5000000  )
        47           N   tau(  47) = (   0.1250000   0.5000000   0.6250000  )
        48           N   tau(  48) = (   0.0000000   0.6250000   0.6250000  )
        49           N   tau(  49) = (   0.0000000   0.5000000   0.7500000  )
        50           N   tau(  50) = (   0.1250000   0.6250000   0.7500000  )
        51           N   tau(  51) = (   0.1250000   0.5000000   0.8750000  )
        52           N   tau(  52) = (   0.0000000   0.6250000   0.8750000  )
        53           N   tau(  53) = (   0.0000000   0.7500000   0.0000000  )
        54           N   tau(  54) = (   0.1250000   0.8750000   0.0000000  )
        55           N   tau(  55) = (   0.1250000   0.7500000   0.1250000  )
        56           N   tau(  56) = (   0.0000000   0.8750000   0.1250000  )
        57           N   tau(  57) = (   0.0000000   0.7500000   0.2500000  )
        58           N   tau(  58) = (   0.1250000   0.8750000   0.2500000  )
        59           N   tau(  59) = (   0.1250000   0.7500000   0.3750000  )
        60           N   tau(  60) = (   0.0000000   0.8750000   0.3750000  )
        61           N   tau(  61) = (   0.0000000   0.7500000   0.5000000  )
        62           N   tau(  62) = (   0.1250000   0.8750000   0.5000000  )
        63           N   tau(  63) = (   0.1250000   0.7500000   0.6250000  )
        64           N   tau(  64) = (   0.0000000   0.8750000   0.6250000  )
        65           N   tau(  65) = (   0.0000000   0.7500000   0.7500000  )
        66           N   tau(  66) = (   0.1250000   0.8750000   0.7500000  )
        67           N   tau(  67) = (   0.1250000   0.7500000   0.8750000  )
        68           N   tau(  68) = (   0.0000000   0.8750000   0.8750000  )
        69           N   tau(  69) = (   0.2500000   0.0000000   0.2500000  )
        70           N   tau(  70) = (   0.3750000   0.1250000   0.2500000  )
        71           N   tau(  71) = (   0.3750000   0.0000000   0.3750000  )
        72           N   tau(  72) = (   0.2500000   0.1250000   0.3750000  )
        73           N   tau(  73) = (   0.2500000   0.0000000   0.5000000  )
        74           N   tau(  74) = (   0.3750000   0.1250000   0.5000000  )
        75           N   tau(  75) = (   0.3750000   0.0000000   0.6250000  )
        76           N   tau(  76) = (   0.2500000   0.1250000   0.6250000  )
        77           N   tau(  77) = (   0.2500000   0.0000000   0.7500000  )
        78           N   tau(  78) = (   0.3750000   0.1250000   0.7500000  )
        79           N   tau(  79) = (   0.3750000   0.0000000   0.8750000  )
        80           N   tau(  80) = (   0.2500000   0.1250000   0.8750000  )
        81           N   tau(  81) = (   0.2500000   0.2500000   0.0000000  )
        82           N   tau(  82) = (   0.3750000   0.3750000   0.0000000  )
        83           N   tau(  83) = (   0.3750000   0.2500000   0.1250000  )
        84           N   tau(  84) = (   0.2500000   0.3750000   0.1250000  )
        85           N   tau(  85) = (   0.2500000   0.2500000   0.2500000  )
        86           N   tau(  86) = (   0.3750000   0.3750000   0.2500000  )
        87           N   tau(  87) = (   0.3750000   0.2500000   0.3750000  )
        88           N   tau(  88) = (   0.2500000   0.3750000   0.3750000  )
        89           N   tau(  89) = (   0.2500000   0.2500000   0.5000000  )
        90           N   tau(  90) = (   0.3750000   0.3750000   0.5000000  )
        91           N   tau(  91) = (   0.3750000   0.2500000   0.6250000  )
        92           N   tau(  92) = (   0.2500000   0.3750000   0.6250000  )
        93           N   tau(  93) = (   0.2500000   0.2500000   0.7500000  )
        94           N   tau(  94) = (   0.3750000   0.3750000   0.7500000  )
        95           N   tau(  95) = (   0.3750000   0.2500000   0.8750000  )
        96           N   tau(  96) = (   0.2500000   0.3750000   0.8750000  )
        97           N   tau(  97) = (   0.2500000   0.5000000   0.0000000  )
        98           N   tau(  98) = (   0.3750000   0.6250000   0.0000000  )
        99           N   tau(  99) = (   0.3750000   0.5000000   0.1250000  )
       100           N   tau( 100) = (   0.2500000   0.6250000   0.1250000  )
       101           N   tau( 101) = (   0.2500000   0.5000000   0.2500000  )
       102           N   tau( 102) = (   0.3750000   0.6250000   0.2500000  )
       103           N   tau( 103) = (   0.3750000   0.5000000   0.3750000  )
       104           N   tau( 104) = (   0.2500000   0.6250000   0.3750000  )
       105           N   tau( 105) = (   0.2500000   0.5000000   0.5000000  )
       106           N   tau( 106) = (   0.3750000   0.6250000   0.5000000  )
       107           N   tau( 107) = (   0.3750000   0.5000000   0.6250000  )
       108           N   tau( 108) = (   0.2500000   0.6250000   0.6250000  )
       109           N   tau( 109) = (   0.2500000   0.5000000   0.7500000  )
       110           N   tau( 110) = (   0.3750000   0.6250000   0.7500000  )
       111           N   tau( 111) = (   0.3750000   0.5000000   0.8750000  )
       112           N   tau( 112) = (   0.2500000   0.6250000   0.8750000  )
       113           N   tau( 113) = (   0.2500000   0.7500000   0.0000000  )
       114           N   tau( 114) = (   0.3750000   0.8750000   0.0000000  )
       115           N   tau( 115) = (   0.3750000   0.7500000   0.1250000  )
       116           N   tau( 116) = (   0.2500000   0.8750000   0.1250000  )
       117           N   tau( 117) = (   0.2500000   0.7500000   0.2500000  )
       118           N   tau( 118) = (   0.3750000   0.8750000   0.2500000  )
       119           N   tau( 119) = (   0.3750000   0.7500000   0.3750000  )
       120           N   tau( 120) = (   0.2500000   0.8750000   0.3750000  )
       121           N   tau( 121) = (   0.2500000   0.7500000   0.5000000  )
       122           N   tau( 122) = (   0.3750000   0.8750000   0.5000000  )
       123           N   tau( 123) = (   0.3750000   0.7500000   0.6250000  )
       124           N   tau( 124) = (   0.2500000   0.8750000   0.6250000  )
       125           N   tau( 125) = (   0.2500000   0.7500000   0.7500000  )
       126           N   tau( 126) = (   0.3750000   0.8750000   0.7500000  )
       127           N   tau( 127) = (   0.3750000   0.7500000   0.8750000  )
       128           N   tau( 128) = (   0.2500000   0.8750000   0.8750000  )
       129           N   tau( 129) = (   0.5000000   0.0000000   0.0000000  )
       130           N   tau( 130) = (   0.6250000   0.1250000   0.0000000  )
       131           N   tau( 131) = (   0.6250000   0.0000000   0.1250000  )
       132           N   tau( 132) = (   0.5000000   0.1250000   0.1250000  )
       133           N   tau( 133) = (   0.5000000   0.0000000   0.2500000  )
       134           N   tau( 134) = (   0.6250000   0.1250000   0.2500000  )
       135           N   tau( 135) = (   0.6250000   0.0000000   0.3750000  )
       136           N   tau( 136) = (   0.5000000   0.1250000   0.3750000  )
       137           N   tau( 137) = (   0.5000000   0.0000000   0.5000000  )
       138           N   tau( 138) = (   0.6250000   0.1250000   0.5000000  )
       139           N   tau( 139) = (   0.6250000   0.0000000   0.6250000  )
       140           N   tau( 140) = (   0.5000000   0.1250000   0.6250000  )
       141           N   tau( 141) = (   0.5000000   0.0000000   0.7500000  )
       142           N   tau( 142) = (   0.6250000   0.1250000   0.7500000  )
       143           N   tau( 143) = (   0.6250000   0.0000000   0.8750000  )
       144           N   tau( 144) = (   0.5000000   0.1250000   0.8750000  )
       145           N   tau( 145) = (   0.5000000   0.2500000   0.0000000  )
       146           N   tau( 146) = (   0.6250000   0.3750000   0.0000000  )
       147           N   tau( 147) = (   0.6250000   0.2500000   0.1250000  )
       148           N   tau( 148) = (   0.5000000   0.3750000   0.1250000  )
       149           N   tau( 149) = (   0.5000000   0.2500000   0.2500000  )
       150           N   tau( 150) = (   0.6250000   0.3750000   0.2500000  )
       151           N   tau( 151) = (   0.6250000   0.2500000   0.3750000  )
       152           N   tau( 152) = (   0.5000000   0.3750000   0.3750000  )
       153           N   tau( 153) = (   0.5000000   0.2500000   0.5000000  )
       154           N   tau( 154) = (   0.6250000   0.3750000   0.5000000  )
       155           N   tau( 155) = (   0.6250000   0.2500000   0.6250000  )
       156           N   tau( 156) = (   0.5000000   0.3750000   0.6250000  )
       157           N   tau( 157) = (   0.5000000   0.2500000   0.7500000  )
       158           N   tau( 158) = (   0.6250000   0.3750000   0.7500000  )
       159           N   tau( 159) = (   0.6250000   0.2500000   0.8750000  )
       160           N   tau( 160) = (   0.5000000   0.3750000   0.8750000  )
       161           N   tau( 161) = (   0.5000000   0.5000000   0.0000000  )
       162           N   tau( 162) = (   0.6250000   0.6250000   0.0000000  )
       163           N   tau( 163) = (   0.6250000   0.5000000   0.1250000  )
       164           N   tau( 164) = (   0.5000000   0.6250000   0.1250000  )
       165           N   tau( 165) = (   0.5000000   0.5000000   0.2500000  )
       166           N   tau( 166) = (   0.6250000   0.6250000   0.2500000  )
       167           N   tau( 167) = (   0.6250000   0.5000000   0.3750000  )
       168           N   tau( 168) = (   0.5000000   0.6250000   0.3750000  )
       169           N   tau( 169) = (   0.5000000   0.5000000   0.5000000  )
       170           N   tau( 170) = (   0.6250000   0.6250000   0.5000000  )
       171           N   tau( 171) = (   0.6250000   0.5000000   0.6250000  )
       172           N   tau( 172) = (   0.5000000   0.6250000   0.6250000  )
       173           N   tau( 173) = (   0.5000000   0.5000000   0.7500000  )
       174           N   tau( 174) = (   0.6250000   0.6250000   0.7500000  )
       175           N   tau( 175) = (   0.6250000   0.5000000   0.8750000  )
       176           N   tau( 176) = (   0.5000000   0.6250000   0.8750000  )
       177           N   tau( 177) = (   0.5000000   0.7500000   0.0000000  )
       178           N   tau( 178) = (   0.6250000   0.8750000   0.0000000  )
       179           N   tau( 179) = (   0.6250000   0.7500000   0.1250000  )
       180           N   tau( 180) = (   0.5000000   0.8750000   0.1250000  )
       181           N   tau( 181) = (   0.5000000   0.7500000   0.2500000  )
       182           N   tau( 182) = (   0.6250000   0.8750000   0.2500000  )
       183           N   tau( 183) = (   0.6250000   0.7500000   0.3750000  )
       184           N   tau( 184) = (   0.5000000   0.8750000   0.3750000  )
       185           N   tau( 185) = (   0.5000000   0.7500000   0.5000000  )
       186           N   tau( 186) = (   0.6250000   0.8750000   0.5000000  )
       187           N   tau( 187) = (   0.6250000   0.7500000   0.6250000  )
       188           N   tau( 188) = (   0.5000000   0.8750000   0.6250000  )
       189           N   tau( 189) = (   0.5000000   0.7500000   0.7500000  )
       190           N   tau( 190) = (   0.6250000   0.8750000   0.7500000  )
       191           N   tau( 191) = (   0.6250000   0.7500000   0.8750000  )
       192           N   tau( 192) = (   0.5000000   0.8750000   0.8750000  )
       193           N   tau( 193) = (   0.7500000   0.0000000   0.0000000  )
       194           N   tau( 194) = (   0.8750000   0.1250000   0.0000000  )
       195           N   tau( 195) = (   0.8750000   0.0000000   0.1250000  )
       196           N   tau( 196) = (   0.7500000   0.1250000   0.1250000  )
       197           N   tau( 197) = (   0.7500000   0.0000000   0.2500000  )
       198           N   tau( 198) = (   0.8750000   0.1250000   0.2500000  )
       199           N   tau( 199) = (   0.8750000   0.0000000   0.3750000  )
       200           N   tau( 200) = (   0.7500000   0.1250000   0.3750000  )
       201           N   tau( 201) = (   0.7500000   0.0000000   0.5000000  )
       202           N   tau( 202) = (   0.8750000   0.1250000   0.5000000  )
       203           N   tau( 203) = (   0.8750000   0.0000000   0.6250000  )
       204           N   tau( 204) = (   0.7500000   0.1250000   0.6250000  )
       205           N   tau( 205) = (   0.7500000   0.0000000   0.7500000  )
       206           N   tau( 206) = (   0.8750000   0.1250000   0.7500000  )
       207           N   tau( 207) = (   0.8750000   0.0000000   0.8750000  )
       208           N   tau( 208) = (   0.7500000   0.1250000   0.8750000  )
       209           N   tau( 209) = (   0.7500000   0.2500000   0.0000000  )
       210           N   tau( 210) = (   0.8750000   0.3750000   0.0000000  )
       211           N   tau( 211) = (   0.8750000   0.2500000   0.1250000  )
       212           N   tau( 212) = (   0.7500000   0.3750000   0.1250000  )
       213           N   tau( 213) = (   0.7500000   0.2500000   0.2500000  )
       214           N   tau( 214) = (   0.8750000   0.3750000   0.2500000  )
       215           N   tau( 215) = (   0.8750000   0.2500000   0.3750000  )
       216           N   tau( 216) = (   0.7500000   0.3750000   0.3750000  )
       217           N   tau( 217) = (   0.7500000   0.2500000   0.5000000  )
       218           N   tau( 218) = (   0.8750000   0.3750000   0.5000000  )
       219           N   tau( 219) = (   0.8750000   0.2500000   0.6250000  )
       220           N   tau( 220) = (   0.7500000   0.3750000   0.6250000  )
       221           N   tau( 221) = (   0.7500000   0.2500000   0.7500000  )
       222           N   tau( 222) = (   0.8750000   0.3750000   0.7500000  )
       223           N   tau( 223) = (   0.8750000   0.2500000   0.8750000  )
       224           N   tau( 224) = (   0.7500000   0.3750000   0.8750000  )
       225           N   tau( 225) = (   0.7500000   0.5000000   0.0000000  )
       226           N   tau( 226) = (   0.8750000   0.6250000   0.0000000  )
       227           N   tau( 227) = (   0.8750000   0.5000000   0.1250000  )
       228           N   tau( 228) = (   0.7500000   0.6250000   0.1250000  )
       229           N   tau( 229) = (   0.7500000   0.5000000   0.2500000  )
       230           N   tau( 230) = (   0.8750000   0.6250000   0.2500000  )
       231           N   tau( 231) = (   0.8750000   0.5000000   0.3750000  )
       232           N   tau( 232) = (   0.7500000   0.6250000   0.3750000  )
       233           N   tau( 233) = (   0.7500000   0.5000000   0.5000000  )
       234           N   tau( 234) = (   0.8750000   0.6250000   0.5000000  )
       235           N   tau( 235) = (   0.8750000   0.5000000   0.6250000  )
       236           N   tau( 236) = (   0.7500000   0.6250000   0.6250000  )
       237           N   tau( 237) = (   0.7500000   0.5000000   0.7500000  )
       238           N   tau( 238) = (   0.8750000   0.6250000   0.7500000  )
       239           N   tau( 239) = (   0.8750000   0.5000000   0.8750000  )
       240           N   tau( 240) = (   0.7500000   0.6250000   0.8750000  )
       241           N   tau( 241) = (   0.7500000   0.7500000   0.0000000  )
       242           N   tau( 242) = (   0.8750000   0.8750000   0.0000000  )
       243           N   tau( 243) = (   0.8750000   0.7500000   0.1250000  )
       244           N   tau( 244) = (   0.7500000   0.8750000   0.1250000  )
       245           N   tau( 245) = (   0.7500000   0.7500000   0.2500000  )
       246           N   tau( 246) = (   0.8750000   0.8750000   0.2500000  )
       247           N   tau( 247) = (   0.8750000   0.7500000   0.3750000  )
       248           N   tau( 248) = (   0.7500000   0.8750000   0.3750000  )
       249           N   tau( 249) = (   0.7500000   0.7500000   0.5000000  )
       250           N   tau( 250) = (   0.8750000   0.8750000   0.5000000  )
       251           N   tau( 251) = (   0.8750000   0.7500000   0.6250000  )
       252           N   tau( 252) = (   0.7500000   0.8750000   0.6250000  )
       253           N   tau( 253) = (   0.7500000   0.7500000   0.7500000  )
       254           N   tau( 254) = (   0.8750000   0.8750000   0.7500000  )
       255           N   tau( 255) = (   0.8750000   0.7500000   0.8750000  )
       256           N   tau( 256) = (   0.7500000   0.8750000   0.8750000  )

     number of k points=     1  Marzari-Vanderbilt smearing, width (Ry)=  0.0500
                       cart. coord. in units 2pi/alat
        k(    1) = (   0.2500000   0.2500000   0.2500000), wk =   2.0000000

     Dense  grid:  1466001 G-vectors     FFT dimensions: ( 144, 144, 144)

     Smooth grid:   809911 G-vectors     FFT dimensions: ( 120, 120, 120)

     Largest allocated arrays     est. size (Mb)     dimensions
        Kohn-Sham Wavefunctions        22.21 Mb     (   3157,  461)
        NL pseudopotentials            98.66 Mb     (   3157, 2048)
        Each V/rho on FFT grid          1.58 Mb     ( 103680)
        Each G-vector array             0.35 Mb     (  45811)
        G-vector shells                 0.35 Mb     (  45811)
     Largest temporary arrays     est. size (Mb)     dimensions
        Auxiliary wavefunctions        88.83 Mb     (   3157, 1844)
        Each subspace H/S matrix       51.89 Mb     (1844,1844)
        Each <psi_i|beta_j> matrix     14.41 Mb     (   2048,  461)
        Arrays for rho mixing          12.66 Mb     ( 103680,   8)

     Check: negative/imaginary core charge=   -0.000006    0.000000

     Initial potential from superposition of free atoms

     starting charge  767.41368, renormalised to  768.00000
     Starting wfc are 1024 randomized atomic wfcs
     Checking if some PAW data can be deallocated... 

     total cpu time spent up to now is       27.7 secs

     Self-consistent Calculation

     iteration #  1     ecut=    35.00 Ry     beta=0.70
     Davidson diagonalization with overlap
     ethr =  1.00E-02,  avg # of iterations =  3.0

     Threshold (ethr) on eigenvalues was too large:
     Diagonalizing with lowered threshold

     Davidson diagonalization with overlap
     ethr =  1.94E-04,  avg # of iterations =  7.0

     total cpu time spent up to now is      125.1 secs

     total energy              =  -10112.75320886 Ry
     Harris-Foulkes estimate   =  -10113.10282980 Ry
     estimated scf accuracy    <       1.41341093 Ry

     iteration #  2     ecut=    35.00 Ry     beta=0.70
     Davidson diagonalization with overlap
     ethr =  1.84E-04,  avg # of iterations =  1.0

     total cpu time spent up to now is      153.0 secs

     total energy              =  -10112.74209375 Ry
     Harris-Foulkes estimate   =  -10112.77194106 Ry
     estimated scf accuracy    <       0.11053507 Ry

     iteration #  3     ecut=    35.00 Ry     beta=0.70
     Davidson diagonalization with overlap
     ethr =  1.44E-05,  avg # of iterations =  5.0

     total cpu time spent up to now is      193.4 secs

     total energy              =  -10112.75129451 Ry
     Harris-Foulkes estimate   =  -10112.75716724 Ry
     estimated scf accuracy    <       0.05519883 Ry

     iteration #  4     ecut=    35.00 Ry     beta=0.70
     Davidson diagonalization with overlap
     ethr =  7.19E-06,  avg # of iterations =  4.0

     total cpu time spent up to now is      226.8 secs

     total energy              =  -10112.75436447 Ry
     Harris-Foulkes estimate   =  -10112.75567903 Ry
     estimated scf accuracy    <       0.00815482 Ry

     iteration #  5     ecut=    35.00 Ry     beta=0.70
     Davidson diagonalization with overlap
     ethr =  1.06E-06,  avg # of iterations =  5.0

     total cpu time spent up to now is      271.9 secs

     total energy              =  -10112.75551829 Ry
     Harris-Foulkes estimate   =  -10112.75630863 Ry
     estimated scf accuracy    <       0.00400666 Ry

     iteration #  6     ecut=    35.00 Ry     beta=0.70
     Davidson diagonalization with overlap
     ethr =  5.22E-07,  avg # of iterations =  4.0

     total cpu time spent up to now is      311.7 secs

     total energy              =  -10112.75540012 Ry
     Harris-Foulkes estimate   =  -10112.75664772 Ry
     estimated scf accuracy    <       0.00804388 Ry

     iteration #  7     ecut=    35.00 Ry     beta=0.70
     Davidson diagonalization with overlap
     ethr =  5.22E-07,  avg # of iterations =  3.0

     total cpu time spent up to now is      346.7 secs

     total energy              =  -10112.75598077 Ry
     Harris-Foulkes estimate   =  -10112.75605725 Ry
     estimated scf accuracy    <       0.00065183 Ry

     iteration #  8     ecut=    35.00 Ry     beta=0.70
     Davidson diagonalization with overlap
     ethr =  8.49E-08,  avg # of iterations =  5.0

     total cpu time spent up to now is      385.3 secs

     total energy              =  -10112.75630997 Ry
     Harris-Foulkes estimate   =  -10112.75602897 Ry
     estimated scf accuracy    <       0.00036781 Ry

     iteration #  9     ecut=    35.00 Ry     beta=0.70
     Davidson diagonalization with overlap
     ethr =  4.79E-08,  avg # of iterations =  4.0

     total cpu time spent up to now is      420.3 secs

     total energy              =  -10112.75588111 Ry
     Harris-Foulkes estimate   =  -10112.75633742 Ry
     estimated scf accuracy    <       0.00149857 Ry

     iteration # 10     ecut=    35.00 Ry     beta=0.70
     Davidson diagonalization with overlap
     ethr =  4.79E-08,  avg # of iterations =  4.0

     total cpu time spent up to now is      460.5 secs

     total energy              =  -10112.75594081 Ry
     Harris-Foulkes estimate   =  -10112.75595362 Ry
     estimated scf accuracy    <       0.00006225 Ry

     iteration # 11     ecut=    35.00 Ry     beta=0.70
     Davidson diagonalization with overlap
     ethr =  8.11E-09,  avg # of iterations =  2.0

     total cpu time spent up to now is      491.3 secs

     total energy              =  -10112.75594500 Ry
     Harris-Foulkes estimate   =  -10112.75594554 Ry
     estimated scf accuracy    <       0.00000956 Ry

     iteration # 12     ecut=    35.00 Ry     beta=0.70
     Davidson diagonalization with overlap
     ethr =  1.25E-09,  avg # of iterations =  5.0

     total cpu time spent up to now is      538.9 secs

     total energy              =  -10112.75594666 Ry
     Harris-Foulkes estimate   =  -10112.75594706 Ry
     estimated scf accuracy    <       0.00000828 Ry

     iteration # 13     ecut=    35.00 Ry     beta=0.70
     Davidson diagonalization with overlap
     ethr =  1.08E-09,  avg # of iterations =  2.0

     total cpu time spent up to now is      568.2 secs

     total energy              =  -10112.75594666 Ry
     Harris-Foulkes estimate   =  -10112.75594686 Ry
     estimated scf accuracy    <       0.00000515 Ry

     iteration # 14     ecut=    35.00 Ry     beta=0.70
     Davidson diagonalization with overlap
     ethr =  6.70E-10,  avg # of iterations =  1.0

     total cpu time spent up to now is      596.2 secs

     total energy              =  -10112.75594651 Ry
     Harris-Foulkes estimate   =  -10112.75594674 Ry
     estimated scf accuracy    <       0.00000311 Ry

     iteration # 15     ecut=    35.00 Ry     beta=0.70
     Davidson diagonalization with overlap
     ethr =  4.06E-10,  avg # of iterations =  3.0

     total cpu time spent up to now is      627.8 secs

     total energy              =  -10112.75594647 Ry
     Harris-Foulkes estimate   =  -10112.75594663 Ry
     estimated scf accuracy    <       0.00000075 Ry

     iteration # 16     ecut=    35.00 Ry     beta=0.70
     Davidson diagonalization with overlap
     ethr =  9.75E-11,  avg # of iterations = 12.0

     total cpu time spent up to now is      711.3 secs

     total energy              =  -10112.75595546 Ry
     Harris-Foulkes estimate   =  -10112.75595560 Ry
     estimated scf accuracy    <       0.00000086 Ry

     iteration # 17     ecut=    35.00 Ry     beta=0.70
     Davidson diagonalization with overlap
     ethr =  9.75E-11,  avg # of iterations =  2.0

     total cpu time spent up to now is      741.3 secs

     total energy              =  -10112.75595546 Ry
     Harris-Foulkes estimate   =  -10112.75595551 Ry
     estimated scf accuracy    <       0.00000086 Ry

     iteration # 18     ecut=    35.00 Ry     beta=0.70
     Davidson diagonalization with overlap
     ethr =  9.75E-11,  avg # of iterations =  1.0

     total cpu time spent up to now is      769.4 secs

     total energy              =  -10112.75595539 Ry
     Harris-Foulkes estimate   =  -10112.75595548 Ry
     estimated scf accuracy    <       0.00000028 Ry

     iteration # 19     ecut=    35.00 Ry     beta=0.70
     Davidson diagonalization with overlap
     ethr =  3.62E-11,  avg # of iterations =  4.0

     total cpu time spent up to now is      808.6 secs

     End of self-consistent calculation

          k = 0.2500 0.2500 0.2500 (101160 PWs)   bands (ev):

    -3.1777  -2.8976  -2.8976  -2.8976  -2.6181  -2.6181  -2.6181  -2.3392
    -2.3392  -2.3392  -2.3392  -2.0607  -2.0607  -2.0607  -2.0607  -2.0607
    -2.0607  -1.7828  -1.7828  -1.7828  -1.5055  -1.5055  -1.5055  -1.5054
    -1.5054  -1.5054  -1.2286  -1.2286  -1.2286  -1.2286  -1.2286  -1.2286
    -1.2286  -1.2286  -1.2286  -0.9523  -0.9523  -0.9523  -0.6765  -0.6765
    -0.6765  -0.6765  -0.6765  -0.6765  -0.6764  -0.4016  -0.4016  -0.4016
    -0.4011  -0.4011  -0.4011  -0.4011  -0.4011  -0.4011  -0.1269  -0.1269
    -0.1269  -0.1269  -0.1269  -0.1269   0.1474   0.1474   0.1474   0.1479
     0.1479   0.1479   0.1480   0.1480   0.1480   0.4212   0.4212   0.4212
     0.4212   0.4212   0.4212   0.4217   0.4217   0.4217   0.6945   0.6945
     0.6945   0.6945   0.6945   0.6945   0.9646   0.9646   0.9646   0.9679
     0.9679   0.9679   1.2367   1.2367   1.2367   1.2367   1.2367   1.2367
     1.2394   1.2394   1.2394   1.2394   1.2394   1.2394   1.2396   1.2396
     1.2396   1.5084   1.5084   1.5084   1.5112   1.5112   1.5112   1.5112
     1.5112   1.5112   1.7795   1.7795   1.7795   1.7795   1.7795   1.7795
     1.7832   2.0502   2.0502   2.0502   2.0502   2.0502   2.0502   2.0532
     2.0532   2.0532   2.0532   2.0532   2.0532   2.3227   2.3227   2.3227
     2.5775   2.5775   2.5775   2.5898   2.5898   2.5898   2.5899   2.5899
     2.5899   2.5899   2.5899   2.5899   2.5922   2.5922   2.5922   2.8462
     2.8462   2.8462   2.8462   2.8462   2.8462   2.8587   2.8587   2.8587
     2.8587   2.8587   2.8587   2.8591   2.8591   2.8591   3.1143   3.1143
     3.1143   3.1263   3.1263   3.1263   3.3821   3.3821   3.3821   3.3821
     3.3821   3.3821   3.3910   3.3910   3.3910   3.3911   3.3911   3.3911
     3.6487   3.6487   3.6487   3.6488   3.6488   3.6488   3.6621   3.6621
     3.6621   3.6621   3.6621   3.6621   3.9237   3.9237   3.9237   3.9237
     3.9237   3.9237   3.9486   3.9486   3.9486   4.1758   4.1758   4.1758
     4.1816   4.1816   4.1816   4.1816   4.1816   4.1816   4.2140   4.2140
     4.2140   4.3544   4.3544   4.3544   4.4410   4.4410   4.4410   4.4410
     4.4410   4.4410   4.4810   4.4810   4.4810   4.4810   4.4810   4.4810
     4.6170   4.6170   4.6170   4.6170   4.6170   4.6170   4.8789   4.8789
     4.8789   4.9816   4.9816   4.9816   4.9988   4.9988   4.9988   4.9988
     4.9988   4.9988   5.0110   5.1410   5.1410   5.1410   5.1410   5.1410
     5.1410   5.2339   5.2339   5.2340   5.2340   5.2340   5.2340   5.2736
     5.2736   5.2736   5.2736   5.2736   5.2736   5.2756   5.2756   5.2756
     5.3984   5.3984   5.3984   5.3984   5.3984   5.3984   5.5276   5.5276
     5.5276   5.5276   5.5276   5.5276   5.7866   5.7866   5.7866   5.7994
     5.7994   5.7994   5.9213   5.9213   5.9213   5.9213   5.9213   5.9213
     5.9425   5.9425   5.9425   6.0497   6.0497   6.0497   6.0497   6.0497
     6.0497   6.2031   6.2031   6.2031   6.2031   6.2031   6.2031   6.3319
     6.3319   6.3319   6.5528   6.5528   6.5528   6.5528   6.5528   6.5528
     6.5919   6.5919   6.5919   6.7201   6.7201   6.7201   6.7201   6.7201
     6.7201   6.8316   6.8316   6.8316   6.8316   6.8316   6.8316   6.8403
     6.8403   6.8403   6.8403   6.8403   6.8403   6.8562   6.8562   6.8562
     6.9697   6.9697   6.9697   6.9697   6.9697   6.9697   7.1197   7.1197
     7.1197   7.1197   7.1197   7.1197   7.2390   7.2390   7.2390   7.2390
     7.2390   7.2390   7.3512   7.3512   7.3512   7.3597   7.3597   7.3597
     7.3597   7.3597   7.3597   7.5024   7.5024   7.5024   7.6174   7.6174
     7.6174   7.6174   7.6174   7.6174   7.6437   7.6437   7.6437   7.7618
     7.7618   7.7618   7.7618   7.7618   7.7618   7.8897   7.8898   7.8898
     7.9705   7.9705   7.9705   7.9705   7.9705   7.9705   8.1471   8.1471
     8.1471   8.1471   8.1471   8.1471   8.1870   8.1870   8.1870   8.3232
     8.3232   8.3232   8.3232   8.3232   8.3232   8.3677   8.3677   8.3677
     8.4158   8.4158   8.4158   8.4158   8.4158   8.4158   8.4888   8.4888
     8.4888   8.5288   8.5288   8.5288   8.5288   8.5288   8.5288   8.5434
     8.5434   8.5434   8.5434   8.5434   8.5434   8.7401   8.7401   8.7401
     8.7401   8.7401   8.7401   8.9058   8.9058   8.9058   8.9468   9.0579
     9.0579   9.0579   9.0580   9.0580   9.0580   9.1176   9.1176   9.1177
     9.1907   9.1907   9.1907   9.1907   9.1907

     the Fermi energy is     7.7300 ev

!    total energy              =  -10112.75595539 Ry
     Harris-Foulkes estimate   =  -10112.75595544 Ry
     estimated scf accuracy    <       0.00000007 Ry

     total all-electron energy =   -124325.308093 Ry

     The total energy is the sum of the following terms:

     one-electron contribution =     800.13525600 Ry
     hartree contribution      =       1.42919492 Ry
     xc contribution           =    -773.62605781 Ry
     ewald contribution        =   -1376.35468648 Ry
     one-center paw contrib.   =   -8764.39958064 Ry
     smearing contrib. (-TS)   =       0.05991862 Ry

     convergence has been achieved in  19 iterations

     Forces acting on atoms (Ry/au):

     atom    1 type  1   force =     0.00000000    0.00000000    0.00000000
     atom    2 type  1   force =     0.00000088    0.00000088   -0.00000000
     atom    3 type  1   force =     0.00000088    0.00000000    0.00000088
     atom    4 type  1   force =    -0.00000000    0.00000088    0.00000088
     atom    5 type  1   force =     0.00000178    0.00000000    0.00000000
     atom    6 type  1   force =     0.00000214    0.00000125    0.00000125
     atom    7 type  1   force =     0.00000064    0.00000137    0.00000000
     atom    8 type  1   force =     0.00000064    0.00000000    0.00000137
     atom    9 type  1   force =     0.00000000    0.00000000    0.00000178
     atom   10 type  1   force =     0.00000125    0.00000125    0.00000214
     atom   11 type  1   force =     0.00000137    0.00000000    0.00000064
     atom   12 type  1   force =     0.00000000    0.00000137    0.00000064
     atom   13 type  1   force =     0.00000000    0.00000000    0.00000000
     atom   14 type  1   force =     0.00000121    0.00000121    0.00000000
     atom   15 type  1   force =     0.00000137    0.00000000   -0.00000064
     atom   16 type  1   force =    -0.00000000    0.00000137   -0.00000064
     atom   17 type  1   force =    -0.00000000    0.00000000   -0.00000178
     atom   18 type  1   force =     0.00000125    0.00000125   -0.00000214
     atom   19 type  1   force =     0.00000088    0.00000000   -0.00000088
     atom   20 type  1   force =     0.00000000    0.00000088   -0.00000088
     atom   21 type  1   force =     0.00000000    0.00000178    0.00000000
     atom   22 type  1   force =     0.00000137    0.00000064    0.00000000
     atom   23 type  1   force =     0.00000125    0.00000214    0.00000125
     atom   24 type  1   force =     0.00000000    0.00000064    0.00000137
     atom   25 type  1   force =     0.00000000    0.00000050    0.00000050
     atom   26 type  1   force =     0.00000183    0.00000046   -0.00000102
     atom   27 type  1   force =     0.00000183   -0.00000102    0.00000046
     atom   28 type  1   force =     0.00000000   -0.00000242   -0.00000242
     atom   29 type  1   force =     0.00000000   -0.00000293   -0.00000000
     atom   30 type  1   force =     0.00000568   -0.00000176    0.00000000
     atom   31 type  1   force =     0.00000183   -0.00000102   -0.00000046
     atom   32 type  1   force =    -0.00000000   -0.00000242    0.00000242
     atom   33 type  1   force =    -0.00000000    0.00000050   -0.00000050
     atom   34 type  1   force =     0.00000183    0.00000046    0.00000102
     atom   35 type  1   force =     0.00000125    0.00000214   -0.00000125
     atom   36 type  1   force =    -0.00000000    0.00000064   -0.00000137
     atom   37 type  1   force =     0.00000000    0.00000000    0.00000000
     atom   38 type  1   force =     0.00000137   -0.00000064    0.00000000
     atom   39 type  1   force =     0.00000121    0.00000000    0.00000121
     atom   40 type  1   force =    -0.00000000   -0.00000064    0.00000137
     atom   41 type  1   force =     0.00000000   -0.00000000   -0.00000293
     atom   42 type  1   force =     0.00000183   -0.00000046   -0.00000102
     atom   43 type  1   force =     0.00000568   -0.00000000   -0.00000176
     atom   44 type  1   force =     0.00000000    0.00000242   -0.00000242
     atom   45 type  1   force =     0.00000000    0.00000000    0.00000000
     atom   46 type  1   force =     0.00000568    0.00000176    0.00000000
     atom   47 type  1   force =     0.00000568    0.00000000    0.00000176
     atom   48 type  1   force =    -0.00000000    0.00000242    0.00000242
     atom   49 type  1   force =     0.00000000    0.00000000    0.00000293
     atom   50 type  1   force =     0.00000183   -0.00000046    0.00000102
     atom   51 type  1   force =     0.00000121   -0.00000000   -0.00000121
     atom   52 type  1   force =    -0.00000000   -0.00000064   -0.00000137
     atom   53 type  1   force =    -0.00000000   -0.00000178   -0.00000000
     atom   54 type  1   force =     0.00000088   -0.00000088   -0.00000000
     atom   55 type  1   force =     0.00000125   -0.00000214    0.00000125
     atom   56 type  1   force =     0.00000000   -0.00000088    0.00000088
     atom   57 type  1   force =     0.00000000   -0.00000050    0.00000050
     atom   58 type  1   force =     0.00000125   -0.00000125    0.00000214
     atom   59 type  1   force =     0.00000183    0.00000102    0.00000046
     atom   60 type  1   force =     0.00000000   -0.00000137    0.00000064
     atom   61 type  1   force =     0.00000000    0.00000293    0.00000000
     atom   62 type  1   force =     0.00000121   -0.00000121   -0.00000000
     atom   63 type  1   force =     0.00000183    0.00000102   -0.00000046
     atom   64 type  1   force =     0.00000000   -0.00000137   -0.00000064
     atom   65 type  1   force =    -0.00000000   -0.00000050   -0.00000050
     atom   66 type  1   force =     0.00000125   -0.00000125   -0.00000214
     atom   67 type  1   force =     0.00000125   -0.00000214   -0.00000125
     atom   68 type  1   force =     0.00000000   -0.00000088   -0.00000088
     atom   69 type  1   force =     0.00000050    0.00000000    0.00000050
     atom   70 type  1   force =     0.00000046    0.00000183   -0.00000102
     atom   71 type  1   force =    -0.00000242   -0.00000000   -0.00000242
     atom   72 type  1   force =    -0.00000102    0.00000183    0.00000046
     atom   73 type  1   force =    -0.00000293    0.00000000   -0.00000000
     atom   74 type  1   force =    -0.00000176    0.00000568    0.00000000
     atom   75 type  1   force =    -0.00000242   -0.00000000    0.00000242
     atom   76 type  1   force =    -0.00000102    0.00000183   -0.00000046
     atom   77 type  1   force =     0.00000050   -0.00000000   -0.00000050
     atom   78 type  1   force =     0.00000046    0.00000183    0.00000102
     atom   79 type  1   force =     0.00000064    0.00000000   -0.00000137
     atom   80 type  1   force =     0.00000214    0.00000125   -0.00000125
     atom   81 type  1   force =     0.00000050    0.00000050   -0.00000000
     atom   82 type  1   force =    -0.00000242   -0.00000242    0.00000000
     atom   83 type  1   force =     0.00000046   -0.00000102    0.00000183
     atom   84 type  1   force =    -0.00000102    0.00000046    0.00000183
     atom   85 type  1   force =     0.00000092    0.00000092    0.00000092
     atom   86 type  1   force =     0.00000071    0.00000071    0.00000208
     atom   87 type  1   force =     0.00000071    0.00000208    0.00000071
     atom   88 type  1   force =     0.00000208    0.00000071    0.00000071
     atom   89 type  1   force =     0.00000125    0.00000125   -0.00000000
     atom   90 type  1   force =    -0.00000060   -0.00000060    0.00000000
     atom   91 type  1   force =     0.00000071    0.00000208   -0.00000071
     atom   92 type  1   force =     0.00000208    0.00000071   -0.00000071
     atom   93 type  1   force =     0.00000092    0.00000092   -0.00000092
     atom   94 type  1   force =     0.00000071    0.00000071   -0.00000208
     atom   95 type  1   force =     0.00000046   -0.00000102   -0.00000183
     atom   96 type  1   force =    -0.00000102    0.00000046   -0.00000183
     atom   97 type  1   force =    -0.00000293    0.00000000    0.00000000
     atom   98 type  1   force =    -0.00000242    0.00000242    0.00000000
     atom   99 type  1   force =    -0.00000176    0.00000000    0.00000568
     atom  100 type  1   force =    -0.00000102   -0.00000046    0.00000183
     atom  101 type  1   force =     0.00000125   -0.00000000    0.00000125
     atom  102 type  1   force =     0.00000071   -0.00000071    0.00000208
     atom  103 type  1   force =    -0.00000060   -0.00000000   -0.00000060
     atom  104 type  1   force =     0.00000208   -0.00000071    0.00000071
     atom  105 type  1   force =     0.00000217    0.00000000   -0.00000000
     atom  106 type  1   force =    -0.00000060    0.00000060    0.00000000
     atom  107 type  1   force =    -0.00000060    0.00000000    0.00000060
     atom  108 type  1   force =     0.00000208   -0.00000071   -0.00000071
     atom  109 type  1   force =     0.00000125   -0.00000000   -0.00000125
     atom  110 type  1   force =     0.00000071   -0.00000071   -0.00000208
     atom  111 type  1   force =    -0.00000176   -0.00000000   -0.00000568
     atom  112 type  1   force =    -0.00000102   -0.00000046   -0.00000183
     atom  113 type  1   force =     0.00000050   -0.00000050    0.00000000
     atom  114 type  1   force =     0.00000064   -0.00000137    0.00000000
     atom  115 type  1   force =     0.00000046    0.00000102    0.00000183
     atom  116 type  1   force =     0.00000214   -0.00000125    0.00000125
     atom  117 type  1   force =     0.00000092   -0.00000092    0.00000092
     atom  118 type  1   force =     0.00000046   -0.00000183   -0.00000102
     atom  119 type  1   force =     0.00000071   -0.00000208    0.00000071
     atom  120 type  1   force =    -0.00000102   -0.00000183    0.00000046
     atom  121 type  1   force =     0.00000125   -0.00000125    0.00000000
     atom  122 type  1   force =    -0.00000176   -0.00000568   -0.00000000
     atom  123 type  1   force =     0.00000071   -0.00000208   -0.00000071
     atom  124 type  1   force =    -0.00000102   -0.00000183   -0.00000046
     atom  125 type  1   force =     0.00000092   -0.00000092   -0.00000092
     atom  126 type  1   force =     0.00000046   -0.00000183    0.00000102
     atom  127 type  1   force =     0.00000046    0.00000102   -0.00000183
     atom  128 type  1   force =     0.00000214   -0.00000125   -0.00000125
     atom  129 type  1   force =     0.00000000    0.00000000    0.00000000
     atom  130 type  1   force =    -0.00000064    0.00000137    0.00000000
     atom  131 type  1   force =    -0.00000064   -0.00000000    0.00000137
     atom  132 type  1   force =    -0.00000000    0.00000121    0.00000121
     atom  133 type  1   force =    -0.00000000    0.00000000   -0.00000293
     atom  134 type  1   force =    -0.00000046    0.00000183   -0.00000102
     atom  135 type  1   force =     0.00000242    0.00000000   -0.00000242
     atom  136 type  1   force =     0.00000000    0.00000568   -0.00000176
     atom  137 type  1   force =     0.00000000    0.00000000    0.00000000
     atom  138 type  1   force =     0.00000176    0.00000568    0.00000000
     atom  139 type  1   force =     0.00000242    0.00000000    0.00000242
     atom  140 type  1   force =     0.00000000    0.00000568    0.00000176
     atom  141 type  1   force =     0.00000000    0.00000000    0.00000293
     atom  142 type  1   force =    -0.00000046    0.00000183    0.00000102
     atom  143 type  1   force =    -0.00000064   -0.00000000   -0.00000137
     atom  144 type  1   force =    -0.00000000    0.00000121   -0.00000121
     atom  145 type  1   force =    -0.00000000   -0.00000293   -0.00000000
     atom  146 type  1   force =     0.00000242   -0.00000242    0.00000000
     atom  147 type  1   force =    -0.00000046   -0.00000102    0.00000183
     atom  148 type  1   force =     0.00000000   -0.00000176    0.00000568
     atom  149 type  1   force =    -0.00000000    0.00000125    0.00000125
     atom  150 type  1   force =    -0.00000071    0.00000071    0.00000208
     atom  151 type  1   force =    -0.00000071    0.00000208    0.00000071
     atom  152 type  1   force =    -0.00000000   -0.00000060   -0.00000060
     atom  153 type  1   force =    -0.00000000    0.00000217    0.00000000
     atom  154 type  1   force =     0.00000060   -0.00000060   -0.00000000
     atom  155 type  1   force =    -0.00000071    0.00000208   -0.00000071
     atom  156 type  1   force =     0.00000000   -0.00000060    0.00000060
     atom  157 type  1   force =     0.00000000    0.00000125   -0.00000125
     atom  158 type  1   force =    -0.00000071    0.00000071   -0.00000208
     atom  159 type  1   force =    -0.00000046   -0.00000102   -0.00000183
     atom  160 type  1   force =    -0.00000000   -0.00000176   -0.00000568
     atom  161 type  1   force =     0.00000000    0.00000000    0.00000000
     atom  162 type  1   force =     0.00000242    0.00000242    0.00000000
     atom  163 type  1   force =     0.00000176    0.00000000    0.00000568
     atom  164 type  1   force =    -0.00000000    0.00000176    0.00000568
     atom  165 type  1   force =     0.00000000    0.00000000    0.00000217
     atom  166 type  1   force =    -0.00000071   -0.00000071    0.00000208
     atom  167 type  1   force =     0.00000060   -0.00000000   -0.00000060
     atom  168 type  1   force =     0.00000000    0.00000060   -0.00000060
     atom  169 type  1   force =     0.00000000    0.00000000    0.00000000
     atom  170 type  1   force =     0.00000060    0.00000060    0.00000000
     atom  171 type  1   force =     0.00000060   -0.00000000    0.00000060
     atom  172 type  1   force =    -0.00000000    0.00000060    0.00000060
     atom  173 type  1   force =     0.00000000    0.00000000   -0.00000217
     atom  174 type  1   force =    -0.00000071   -0.00000071   -0.00000208
     atom  175 type  1   force =     0.00000176    0.00000000   -0.00000568
     atom  176 type  1   force =    -0.00000000    0.00000176   -0.00000568
     atom  177 type  1   force =     0.00000000    0.00000293    0.00000000
     atom  178 type  1   force =    -0.00000064   -0.00000137   -0.00000000
     atom  179 type  1   force =    -0.00000046    0.00000102    0.00000183
     atom  180 type  1   force =     0.00000000   -0.00000121    0.00000121
     atom  181 type  1   force =    -0.00000000   -0.00000125    0.00000125
     atom  182 type  1   force =    -0.00000046   -0.00000183   -0.00000102
     atom  183 type  1   force =    -0.00000071   -0.00000208    0.00000071
     atom  184 type  1   force =     0.00000000   -0.00000568   -0.00000176
     atom  185 type  1   force =     0.00000000   -0.00000217    0.00000000
     atom  186 type  1   force =     0.00000176   -0.00000568    0.00000000
     atom  187 type  1   force =    -0.00000071   -0.00000208   -0.00000071
     atom  188 type  1   force =    -0.00000000   -0.00000568    0.00000176
     atom  189 type  1   force =     0.00000000   -0.00000125   -0.00000125
     atom  190 type  1   force =    -0.00000046   -0.00000183    0.00000102
     atom  191 type  1   force =    -0.00000046    0.00000102   -0.00000183
     atom  192 type  1   force =    -0.00000000   -0.00000121   -0.00000121
     atom  193 type  1   force =    -0.00000178    0.00000000    0.00000000
     atom  194 type  1   force =    -0.00000088    0.00000088    0.00000000
     atom  195 type  1   force =    -0.00000088    0.00000000    0.00000088
     atom  196 type  1   force =    -0.00000214    0.00000125    0.00000125
     atom  197 type  1   force =    -0.00000050    0.00000000    0.00000050
     atom  198 type  1   force =    -0.00000125    0.00000125    0.00000214
     atom  199 type  1   force =    -0.00000137   -0.00000000    0.00000064
     atom  200 type  1   force =     0.00000102    0.00000183    0.00000046
     atom  201 type  1   force =     0.00000293    0.00000000    0.00000000
     atom  202 type  1   force =    -0.00000121    0.00000121    0.00000000
     atom  203 type  1   force =    -0.00000137   -0.00000000   -0.00000064
     atom  204 type  1   force =     0.00000102    0.00000183   -0.00000046
     atom  205 type  1   force =    -0.00000050   -0.00000000   -0.00000050
     atom  206 type  1   force =    -0.00000125    0.00000125   -0.00000214
     atom  207 type  1   force =    -0.00000088    0.00000000   -0.00000088
     atom  208 type  1   force =    -0.00000214    0.00000125   -0.00000125
     atom  209 type  1   force =    -0.00000050    0.00000050   -0.00000000
     atom  210 type  1   force =    -0.00000137    0.00000064   -0.00000000
     atom  211 type  1   force =    -0.00000125    0.00000214    0.00000125
     atom  212 type  1   force =     0.00000102    0.00000046    0.00000183
     atom  213 type  1   force =    -0.00000092    0.00000092    0.00000092
     atom  214 type  1   force =    -0.00000183    0.00000046   -0.00000102
     atom  215 type  1   force =    -0.00000183   -0.00000102    0.00000046
     atom  216 type  1   force =    -0.00000208    0.00000071    0.00000071
     atom  217 type  1   force =    -0.00000125    0.00000125    0.00000000
     atom  218 type  1   force =    -0.00000568   -0.00000176    0.00000000
     atom  219 type  1   force =    -0.00000183   -0.00000102   -0.00000046
     atom  220 type  1   force =    -0.00000208    0.00000071   -0.00000071
     atom  221 type  1   force =    -0.00000092    0.00000092   -0.00000092
     atom  222 type  1   force =    -0.00000183    0.00000046    0.00000102
     atom  223 type  1   force =    -0.00000125    0.00000214   -0.00000125
     atom  224 type  1   force =     0.00000102    0.00000046   -0.00000183
     atom  225 type  1   force =     0.00000293    0.00000000    0.00000000
     atom  226 type  1   force =    -0.00000137   -0.00000064    0.00000000
     atom  227 type  1   force =    -0.00000121   -0.00000000    0.00000121
     atom  228 type  1   force =     0.00000102   -0.00000046    0.00000183
     atom  229 type  1   force =    -0.00000125   -0.00000000    0.00000125
     atom  230 type  1   force =    -0.00000183   -0.00000046   -0.00000102
     atom  231 type  1   force =    -0.00000568    0.00000000   -0.00000176
     atom  232 type  1   force =    -0.00000208   -0.00000071    0.00000071
     atom  233 type  1   force =    -0.00000217    0.00000000   -0.00000000
     atom  234 type  1   force =    -0.00000568    0.00000176    0.00000000
     atom  235 type  1   force =    -0.00000568    0.00000000    0.00000176
     atom  236 type  1   force =    -0.00000208   -0.00000071   -0.00000071
     atom  237 type  1   force =    -0.00000125    0.00000000   -0.00000125
     atom  238 type  1   force =    -0.00000183   -0.00000046    0.00000102
     atom  239 type  1   force =    -0.00000121   -0.00000000   -0.00000121
     atom  240 type  1   force =     0.00000102   -0.00000046   -0.00000183
     atom  241 type  1   force =    -0.00000050   -0.00000050    0.00000000
     atom  242 type  1   force =    -0.00000088   -0.00000088    0.00000000
     atom  243 type  1   force =    -0.00000125   -0.00000214    0.00000125
     atom  244 type  1   force =    -0.00000214   -0.00000125    0.00000125
     atom  245 type  1   force =    -0.00000092   -0.00000092    0.00000092
     atom  246 type  1   force =    -0.00000125   -0.00000125    0.00000214
     atom  247 type  1   force =    -0.00000183    0.00000102    0.00000046
     atom  248 type  1   force =     0.00000102   -0.00000183    0.00000046
     atom  249 type  1   force =    -0.00000125   -0.00000125   -0.00000000
     atom  250 type  1   force =    -0.00000121   -0.00000121   -0.00000000
     atom  251 type  1   force =    -0.00000183    0.00000102   -0.00000046
     atom  252 type  1   force =     0.00000102   -0.00000183   -0.00000046
     atom  253 type  1   force =    -0.00000092   -0.00000092   -0.00000092
     atom  254 type  1   force =    -0.00000125   -0.00000125   -0.00000214
     atom  255 type  1   force =    -0.00000125   -0.00000214   -0.00000125
     atom  256 type  1   force =    -0.00000214   -0.00000125   -0.00000125

     Total force =     0.000000     Total SCF correction =     0.000000


     entering subroutine stress ...

          total   stress  (Ry/bohr**3)                   (kbar)     P=  -13.80
  -0.00009380   0.00000000   0.00000000        -13.80      0.00      0.00
   0.00000000  -0.00009380   0.00000000          0.00    -13.80      0.00
   0.00000000   0.00000000  -0.00009380          0.00      0.00    -13.80


     BFGS Geometry Optimization

     number of scf cycles    =   1
     number of bfgs steps    =   0

     enthalpy new            =  -10112.7559553883 Ry

     new trust radius        =       0.0797754395 bohr
     new conv_thr            =       0.0000001000 Ry

     new unit-cell volume =  28731.37138 a.u.^3 (  4257.54992 Ang^3 )

CELL_PARAMETERS (alat= 30.70000000)
   0.997655060   0.000000000   0.000000000
   0.000000000   0.997655060   0.000000000
   0.000000000   0.000000000   0.997655060

ATOMIC_POSITIONS (crystal)
N        0.000000000   0.000000000   0.000000000    0   0   0
N        0.125000000   0.125000000   0.000000000    0   0   0
N        0.125000000   0.000000000   0.125000000    0   0   0
N        0.000000000   0.125000000   0.125000000    0   0   0
N        0.250000000   0.000000000   0.000000000    0   0   0
N        0.250000000   0.125000000   0.125000000    0   0   0
N        0.375000000   0.125000000   0.000000000    0   0   0
N        0.375000000   0.000000000   0.125000000    0   0   0
N        0.000000000   0.000000000   0.250000000    0   0   0
N        0.125000000   0.125000000   0.250000000    0   0   0
N        0.125000000   0.000000000   0.375000000    0   0   0
N        0.000000000   0.125000000   0.375000000    0   0   0
N        0.000000000   0.000000000   0.500000000    0   0   0
N        0.125000000   0.125000000   0.500000000    0   0   0
N        0.125000000   0.000000000   0.625000000    0   0   0
N        0.000000000   0.125000000   0.625000000    0   0   0
N        0.000000000   0.000000000   0.750000000    0   0   0
N        0.125000000   0.125000000   0.750000000    0   0   0
N        0.125000000   0.000000000   0.875000000    0   0   0
N        0.000000000   0.125000000   0.875000000    0   0   0
N        0.000000000   0.250000000   0.000000000    0   0   0
N        0.125000000   0.375000000   0.000000000    0   0   0
N        0.125000000   0.250000000   0.125000000    0   0   0
N        0.000000000   0.375000000   0.125000000    0   0   0
N        0.000000000   0.250000000   0.250000000    0   0   0
N        0.125000000   0.375000000   0.250000000    0   0   0
N        0.125000000   0.250000000   0.375000000    0   0   0
N        0.000000000   0.375000000   0.375000000    0   0   0
N        0.000000000   0.250000000   0.500000000    0   0   0
N        0.125000000   0.375000000   0.500000000    0   0   0
N        0.125000000   0.250000000   0.625000000    0   0   0
N        0.000000000   0.375000000   0.625000000    0   0   0
N        0.000000000   0.250000000   0.750000000    0   0   0
N        0.125000000   0.375000000   0.750000000    0   0   0
N        0.125000000   0.250000000   0.875000000    0   0   0
N        0.000000000   0.375000000   0.875000000    0   0   0
N        0.000000000   0.500000000   0.000000000    0   0   0
N        0.125000000   0.625000000   0.000000000    0   0   0
N        0.125000000   0.500000000   0.125000000    0   0   0
N        0.000000000   0.625000000   0.125000000    0   0   0
N        0.000000000   0.500000000   0.250000000    0   0   0
N        0.125000000   0.625000000   0.250000000    0   0   0
N        0.125000000   0.500000000   0.375000000    0   0   0
N        0.000000000   0.625000000   0.375000000    0   0   0
N        0.000000000   0.500000000   0.500000000    0   0   0
N        0.125000000   0.625000000   0.500000000    0   0   0
N        0.125000000   0.500000000   0.625000000    0   0   0
N        0.000000000   0.625000000   0.625000000    0   0   0
N        0.000000000   0.500000000   0.750000000    0   0   0
N        0.125000000   0.625000000   0.750000000    0   0   0
N        0.125000000   0.500000000   0.875000000    0   0   0
N        0.000000000   0.625000000   0.875000000    0   0   0
N        0.000000000   0.750000000   0.000000000    0   0   0
N        0.125000000   0.875000000   0.000000000    0   0   0
N        0.125000000   0.750000000   0.125000000    0   0   0
N        0.000000000   0.875000000   0.125000000    0   0   0
N        0.000000000   0.750000000   0.250000000    0   0   0
N        0.125000000   0.875000000   0.250000000    0   0   0
N        0.125000000   0.750000000   0.375000000    0   0   0
N        0.000000000   0.875000000   0.375000000    0   0   0
N        0.000000000   0.750000000   0.500000000    0   0   0
N        0.125000000   0.875000000   0.500000000    0   0   0
N        0.125000000   0.750000000   0.625000000    0   0   0
N        0.000000000   0.875000000   0.625000000    0   0   0
N        0.000000000   0.750000000   0.750000000    0   0   0
N        0.125000000   0.875000000   0.750000000    0   0   0
N        0.125000000   0.750000000   0.875000000    0   0   0
N        0.000000000   0.875000000   0.875000000    0   0   0
N        0.250000000   0.000000000   0.250000000    0   0   0
N        0.375000000   0.125000000   0.250000000    0   0   0
N        0.375000000   0.000000000   0.375000000    0   0   0
N        0.250000000   0.125000000   0.375000000    0   0   0
N        0.250000000   0.000000000   0.500000000    0   0   0
N        0.375000000   0.125000000   0.500000000    0   0   0
N        0.375000000   0.000000000   0.625000000    0   0   0
N        0.250000000   0.125000000   0.625000000    0   0   0
N        0.250000000   0.000000000   0.750000000    0   0   0
N        0.375000000   0.125000000   0.750000000    0   0   0
N        0.375000000   0.000000000   0.875000000    0   0   0
N        0.250000000   0.125000000   0.875000000    0   0   0
N        0.250000000   0.250000000   0.000000000    0   0   0
N        0.375000000   0.375000000   0.000000000    0   0   0
N        0.375000000   0.250000000   0.125000000    0   0   0
N        0.250000000   0.375000000   0.125000000    0   0   0
N        0.250000000   0.250000000   0.250000000    0   0   0
N        0.375000000   0.375000000   0.250000000    0   0   0
N        0.375000000   0.250000000   0.375000000    0   0   0
N        0.250000000   0.375000000   0.375000000    0   0   0
N        0.250000000   0.250000000   0.500000000    0   0   0
N        0.375000000   0.375000000   0.500000000    0   0   0
N        0.375000000   0.250000000   0.625000000    0   0   0
N        0.250000000   0.375000000   0.625000000    0   0   0
N        0.250000000   0.250000000   0.750000000    0   0   0
N        0.375000000   0.375000000   0.750000000    0   0   0
N        0.375000000   0.250000000   0.875000000    0   0   0
N        0.250000000   0.375000000   0.875000000    0   0   0
N        0.250000000   0.500000000   0.000000000    0   0   0
N        0.375000000   0.625000000   0.000000000    0   0   0
N        0.375000000   0.500000000   0.125000000    0   0   0
N        0.250000000   0.625000000   0.125000000    0   0   0
N        0.250000000   0.500000000   0.250000000    0   0   0
N        0.375000000   0.625000000   0.250000000    0   0   0
N        0.375000000   0.500000000   0.375000000    0   0   0
N        0.250000000   0.625000000   0.375000000    0   0   0
N        0.250000000   0.500000000   0.500000000    0   0   0
N        0.375000000   0.625000000   0.500000000    0   0   0
N        0.375000000   0.500000000   0.625000000    0   0   0
N        0.250000000   0.625000000   0.625000000    0   0   0
N        0.250000000   0.500000000   0.750000000    0   0   0
N        0.375000000   0.625000000   0.750000000    0   0   0
N        0.375000000   0.500000000   0.875000000    0   0   0
N        0.250000000   0.625000000   0.875000000    0   0   0
N        0.250000000   0.750000000   0.000000000    0   0   0
N        0.375000000   0.875000000   0.000000000    0   0   0
N        0.375000000   0.750000000   0.125000000    0   0   0
N        0.250000000   0.875000000   0.125000000    0   0   0
N        0.250000000   0.750000000   0.250000000    0   0   0
N        0.375000000   0.875000000   0.250000000    0   0   0
N        0.375000000   0.750000000   0.375000000    0   0   0
N        0.250000000   0.875000000   0.375000000    0   0   0
N        0.250000000   0.750000000   0.500000000    0   0   0
N        0.375000000   0.875000000   0.500000000    0   0   0
N        0.375000000   0.750000000   0.625000000    0   0   0
N        0.250000000   0.875000000   0.625000000    0   0   0
N        0.250000000   0.750000000   0.750000000    0   0   0
N        0.375000000   0.875000000   0.750000000    0   0   0
N        0.375000000   0.750000000   0.875000000    0   0   0
N        0.250000000   0.875000000   0.875000000    0   0   0
N        0.500000000   0.000000000   0.000000000    0   0   0
N        0.625000000   0.125000000   0.000000000    0   0   0
N        0.625000000   0.000000000   0.125000000    0   0   0
N        0.500000000   0.125000000   0.125000000    0   0   0
N        0.500000000   0.000000000   0.250000000    0   0   0
N        0.625000000   0.125000000   0.250000000    0   0   0
N        0.625000000   0.000000000   0.375000000    0   0   0
N        0.500000000   0.125000000   0.375000000    0   0   0
N        0.500000000   0.000000000   0.500000000    0   0   0
N        0.625000000   0.125000000   0.500000000    0   0   0
N        0.625000000   0.000000000   0.625000000    0   0   0
N        0.500000000   0.125000000   0.625000000    0   0   0
N        0.500000000   0.000000000   0.750000000    0   0   0
N        0.625000000   0.125000000   0.750000000    0   0   0
N        0.625000000   0.000000000   0.875000000    0   0   0
N        0.500000000   0.125000000   0.875000000    0   0   0
N        0.500000000   0.250000000   0.000000000    0   0   0
N        0.625000000   0.375000000   0.000000000    0   0   0
N        0.625000000   0.250000000   0.125000000    0   0   0
N        0.500000000   0.375000000   0.125000000    0   0   0
N        0.500000000   0.250000000   0.250000000    0   0   0
N        0.625000000   0.375000000   0.250000000    0   0   0
N        0.625000000   0.250000000   0.375000000    0   0   0
N        0.500000000   0.375000000   0.375000000    0   0   0
N        0.500000000   0.250000000   0.500000000    0   0   0
N        0.625000000   0.375000000   0.500000000    0   0   0
N        0.625000000   0.250000000   0.625000000    0   0   0
N        0.500000000   0.375000000   0.625000000    0   0   0
N        0.500000000   0.250000000   0.750000000    0   0   0
N        0.625000000   0.375000000   0.750000000    0   0   0
N        0.625000000   0.250000000   0.875000000    0   0   0
N        0.500000000   0.375000000   0.875000000    0   0   0
N        0.500000000   0.500000000   0.000000000    0   0   0
N        0.625000000   0.625000000   0.000000000    0   0   0
N        0.625000000   0.500000000   0.125000000    0   0   0
N        0.500000000   0.625000000   0.125000000    0   0   0
N        0.500000000   0.500000000   0.250000000    0   0   0
N        0.625000000   0.625000000   0.250000000    0   0   0
N        0.625000000   0.500000000   0.375000000    0   0   0
N        0.500000000   0.625000000   0.375000000    0   0   0
N        0.500000000   0.500000000   0.500000000    0   0   0
N        0.625000000   0.625000000   0.500000000    0   0   0
N        0.625000000   0.500000000   0.625000000    0   0   0
N        0.500000000   0.625000000   0.625000000    0   0   0
N        0.500000000   0.500000000   0.750000000    0   0   0
N        0.625000000   0.625000000   0.750000000    0   0   0
N        0.625000000   0.500000000   0.875000000    0   0   0
N        0.500000000   0.625000000   0.875000000    0   0   0
N        0.500000000   0.750000000   0.000000000    0   0   0
N        0.625000000   0.875000000   0.000000000    0   0   0
N        0.625000000   0.750000000   0.125000000    0   0   0
N        0.500000000   0.875000000   0.125000000    0   0   0
N        0.500000000   0.750000000   0.250000000    0   0   0
N        0.625000000   0.875000000   0.250000000    0   0   0
N        0.625000000   0.750000000   0.375000000    0   0   0
N        0.500000000   0.875000000   0.375000000    0   0   0
N        0.500000000   0.750000000   0.500000000    0   0   0
N        0.625000000   0.875000000   0.500000000    0   0   0
N        0.625000000   0.750000000   0.625000000    0   0   0
N        0.500000000   0.875000000   0.625000000    0   0   0
N        0.500000000   0.750000000   0.750000000    0   0   0
N        0.625000000   0.875000000   0.750000000    0   0   0
N        0.625000000   0.750000000   0.875000000    0   0   0
N        0.500000000   0.875000000   0.875000000    0   0   0
N        0.750000000   0.000000000   0.000000000    0   0   0
N        0.875000000   0.125000000   0.000000000    0   0   0
N        0.875000000   0.000000000   0.125000000    0   0   0
N        0.750000000   0.125000000   0.125000000    0   0   0
N        0.750000000   0.000000000   0.250000000    0   0   0
N        0.875000000   0.125000000   0.250000000    0   0   0
N        0.875000000   0.000000000   0.375000000    0   0   0
N        0.750000000   0.125000000   0.375000000    0   0   0
N        0.750000000   0.000000000   0.500000000    0   0   0
N        0.875000000   0.125000000   0.500000000    0   0   0
N        0.875000000   0.000000000   0.625000000    0   0   0
N        0.750000000   0.125000000   0.625000000    0   0   0
N        0.750000000   0.000000000   0.750000000    0   0   0
N        0.875000000   0.125000000   0.750000000    0   0   0
N        0.875000000   0.000000000   0.875000000    0   0   0
N        0.750000000   0.125000000   0.875000000    0   0   0
N        0.750000000   0.250000000   0.000000000    0   0   0
N        0.875000000   0.375000000   0.000000000    0   0   0
N        0.875000000   0.250000000   0.125000000    0   0   0
N        0.750000000   0.375000000   0.125000000    0   0   0
N        0.750000000   0.250000000   0.250000000    0   0   0
N        0.875000000   0.375000000   0.250000000    0   0   0
N        0.875000000   0.250000000   0.375000000    0   0   0
N        0.750000000   0.375000000   0.375000000    0   0   0
N        0.750000000   0.250000000   0.500000000    0   0   0
N        0.875000000   0.375000000   0.500000000    0   0   0
N        0.875000000   0.250000000   0.625000000    0   0   0
N        0.750000000   0.375000000   0.625000000    0   0   0
N        0.750000000   0.250000000   0.750000000    0   0   0
N        0.875000000   0.375000000   0.750000000    0   0   0
N        0.875000000   0.250000000   0.875000000    0   0   0
N        0.750000000   0.375000000   0.875000000    0   0   0
N        0.750000000   0.500000000   0.000000000    0   0   0
N        0.875000000   0.625000000   0.000000000    0   0   0
N        0.875000000   0.500000000   0.125000000    0   0   0
N        0.750000000   0.625000000   0.125000000    0   0   0
N        0.750000000   0.500000000   0.250000000    0   0   0
N        0.875000000   0.625000000   0.250000000    0   0   0
N        0.875000000   0.500000000   0.375000000    0   0   0
N        0.750000000   0.625000000   0.375000000    0   0   0
N        0.750000000   0.500000000   0.500000000    0   0   0
N        0.875000000   0.625000000   0.500000000    0   0   0
N        0.875000000   0.500000000   0.625000000    0   0   0
N        0.750000000   0.625000000   0.625000000    0   0   0
N        0.750000000   0.500000000   0.750000000    0   0   0
N        0.875000000   0.625000000   0.750000000    0   0   0
N        0.875000000   0.500000000   0.875000000    0   0   0
N        0.750000000   0.625000000   0.875000000    0   0   0
N        0.750000000   0.750000000   0.000000000    0   0   0
N        0.875000000   0.875000000   0.000000000    0   0   0
N        0.875000000   0.750000000   0.125000000    0   0   0
N        0.750000000   0.875000000   0.125000000    0   0   0
N        0.750000000   0.750000000   0.250000000    0   0   0
N        0.875000000   0.875000000   0.250000000    0   0   0
N        0.875000000   0.750000000   0.375000000    0   0   0
N        0.750000000   0.875000000   0.375000000    0   0   0
N        0.750000000   0.750000000   0.500000000    0   0   0
N        0.875000000   0.875000000   0.500000000    0   0   0
N        0.875000000   0.750000000   0.625000000    0   0   0
N        0.750000000   0.875000000   0.625000000    0   0   0
N        0.750000000   0.750000000   0.750000000    0   0   0
N        0.875000000   0.875000000   0.750000000    0   0   0
N        0.875000000   0.750000000   0.875000000    0   0   0
N        0.750000000   0.875000000   0.875000000    0   0   0



     Writing output data file 7d8a32957a9d.save
     NEW-OLD atomic charge density approx. for the potential
     NEW k-points:
        k(    1) = (   0.2505876   0.2505876   0.2505876), wk =   2.0000000

     Check: negative/imaginary core charge=   -0.000006    0.000000
     extrapolated charge  762.57597, renormalised to  768.00000

     total cpu time spent up to now is      929.1 secs

     Self-consistent Calculation

     iteration #  1     ecut=    35.00 Ry     beta=0.70
     Davidson diagonalization with overlap
     ethr =  1.00E-06,  avg # of iterations =  5.0

     Threshold (ethr) on eigenvalues was too large:
     Diagonalizing with lowered threshold

     Davidson diagonalization with overlap
     ethr =  2.48E-08,  avg # of iterations =  3.0

     total cpu time spent up to now is     1028.2 secs

     total energy              =  -10112.77144780 Ry
     Harris-Foulkes estimate   =  -10108.37301524 Ry
     estimated scf accuracy    <       0.00019319 Ry

     iteration #  2     ecut=    35.00 Ry     beta=0.70
     Davidson diagonalization with overlap
     ethr =  2.52E-08,  avg # of iterations =  6.0

     total cpu time spent up to now is     1084.5 secs

     total energy              =  -10112.77109598 Ry
     Harris-Foulkes estimate   =  -10112.77172369 Ry
     estimated scf accuracy    <       0.00712918 Ry

     iteration #  3     ecut=    35.00 Ry     beta=0.70
     Davidson diagonalization with overlap
     ethr =  2.52E-08,  avg # of iterations =  6.0

     total cpu time spent up to now is     1137.4 secs

     total energy              =  -10112.77140587 Ry
     Harris-Foulkes estimate   =  -10112.77151925 Ry
     estimated scf accuracy    <       0.00105021 Ry

     iteration #  4     ecut=    35.00 Ry     beta=0.70
     Davidson diagonalization with overlap
     ethr =  2.52E-08,  avg # of iterations =  4.0

     total cpu time spent up to now is     1183.3 secs

     total energy              =  -10112.77135069 Ry
     Harris-Foulkes estimate   =  -10112.77159039 Ry
     estimated scf accuracy    <       0.00147724 Ry

     iteration #  5     ecut=    35.00 Ry     beta=0.70
     Davidson diagonalization with overlap
     ethr =  2.52E-08,  avg # of iterations =  4.0

     total cpu time spent up to now is     1226.9 secs

     total energy              =  -10112.77145006 Ry
     Harris-Foulkes estimate   =  -10112.77148479 Ry
     estimated scf accuracy    <       0.00021718 Ry

     iteration #  6     ecut=    35.00 Ry     beta=0.70
     Davidson diagonalization with overlap
     ethr =  2.52E-08,  avg # of iterations =  2.0

     total cpu time spent up to now is     1257.9 secs

     total energy              =  -10112.77146580 Ry
     Harris-Foulkes estimate   =  -10112.77146785 Ry
     estimated scf accuracy    <       0.00000408 Ry

     iteration #  7     ecut=    35.00 Ry     beta=0.70
     Davidson diagonalization with overlap
     ethr =  5.31E-10,  avg # of iterations =  5.0

     total cpu time spent up to now is     1317.9 secs

     total energy              =  -10112.77146752 Ry
     Harris-Foulkes estimate   =  -10112.77146980 Ry
     estimated scf accuracy    <       0.00000942 Ry

     iteration #  8     ecut=    35.00 Ry     beta=0.70
     Davidson diagonalization with overlap
     ethr =  5.31E-10,  avg # of iterations =  4.0

     total cpu time spent up to now is     1358.0 secs

     total energy              =  -10112.77146840 Ry
     Harris-Foulkes estimate   =  -10112.77146861 Ry
     estimated scf accuracy    <       0.00000151 Ry

     iteration #  9     ecut=    35.00 Ry     beta=0.70
     Davidson diagonalization with overlap
     ethr =  1.96E-10,  avg # of iterations =  2.0

     total cpu time spent up to now is     1387.9 secs

     total energy              =  -10112.77146843 Ry
     Harris-Foulkes estimate   =  -10112.77146848 Ry
     estimated scf accuracy    <       0.00000062 Ry

     iteration # 10     ecut=    35.00 Ry     beta=0.70
     Davidson diagonalization with overlap
     ethr =  8.04E-11,  avg # of iterations =  3.0

     total cpu time spent up to now is     1419.4 secs

     total energy              =  -10112.77146843 Ry
     Harris-Foulkes estimate   =  -10112.77146846 Ry
     estimated scf accuracy    <       0.00000025 Ry

     iteration # 11     ecut=    35.00 Ry     beta=0.70
     Davidson diagonalization with overlap
     ethr =  3.25E-11,  avg # of iterations =  4.0

     total cpu time spent up to now is     1458.9 secs

     End of self-consistent calculation

          k = 0.2506 0.2506 0.2506 (101160 PWs)   bands (ev):

[...]
     atom   33 type  1   force =     0.00000000   -0.00000002    0.00000002
     atom   34 type  1   force =     0.00000011   -0.00000008    0.00000001
     atom   35 type  1   force =     0.00000008   -0.00000006   -0.00000008
     atom   36 type  1   force =     0.00000000    0.00000014    0.00000014
     atom   37 type  1   force =     0.00000000    0.00000000    0.00000000
     atom   38 type  1   force =    -0.00000014   -0.00000014    0.00000000
     atom   39 type  1   force =    -0.00000012    0.00000000   -0.00000012
     atom   40 type  1   force =     0.00000000   -0.00000014   -0.00000014
     atom   41 type  1   force =     0.00000000    0.00000000   -0.00000013
     atom   42 type  1   force =     0.00000011    0.00000008   -0.00000001
     atom   43 type  1   force =     0.00000011   -0.00000000   -0.00000004
     atom   44 type  1   force =     0.00000000    0.00000007   -0.00000007
     atom   45 type  1   force =     0.00000000    0.00000000    0.00000000
     atom   46 type  1   force =     0.00000011    0.00000004   -0.00000000
     atom   47 type  1   force =     0.00000011    0.00000000    0.00000004
     atom   48 type  1   force =    -0.00000000    0.00000007    0.00000007
     atom   49 type  1   force =     0.00000000    0.00000000    0.00000013
     atom   50 type  1   force =     0.00000011    0.00000008    0.00000001
     atom   51 type  1   force =    -0.00000012    0.00000000    0.00000012
     atom   52 type  1   force =     0.00000000   -0.00000014    0.00000014
     atom   53 type  1   force =    -0.00000000   -0.00000006   -0.00000000
     atom   54 type  1   force =     0.00000001   -0.00000001    0.00000000
     atom   55 type  1   force =     0.00000008    0.00000006    0.00000008
     atom   56 type  1   force =     0.00000000   -0.00000001    0.00000001
     atom   57 type  1   force =     0.00000000    0.00000002   -0.00000002
     atom   58 type  1   force =     0.00000008   -0.00000008   -0.00000006
     atom   59 type  1   force =     0.00000011    0.00000001   -0.00000008
     atom   60 type  1   force =     0.00000000    0.00000014    0.00000014
     atom   61 type  1   force =     0.00000000    0.00000013    0.00000000
     atom   62 type  1   force =    -0.00000012    0.00000012   -0.00000000
     atom   63 type  1   force =     0.00000011    0.00000001    0.00000008
     atom   64 type  1   force =    -0.00000000    0.00000014   -0.00000014
     atom   65 type  1   force =     0.00000000    0.00000002    0.00000002
     atom   66 type  1   force =     0.00000008   -0.00000008    0.00000006
     atom   67 type  1   force =     0.00000008    0.00000006   -0.00000008
     atom   68 type  1   force =    -0.00000000   -0.00000001   -0.00000001
     atom   69 type  1   force =    -0.00000002    0.00000000   -0.00000002
     atom   70 type  1   force =    -0.00000008    0.00000011   -0.00000001
     atom   71 type  1   force =    -0.00000007   -0.00000000   -0.00000007
     atom   72 type  1   force =    -0.00000001    0.00000011   -0.00000008
     atom   73 type  1   force =    -0.00000013    0.00000000    0.00000000
     atom   74 type  1   force =    -0.00000004    0.00000011    0.00000000
     atom   75 type  1   force =    -0.00000007   -0.00000000    0.00000007
     atom   76 type  1   force =    -0.00000001    0.00000011    0.00000008
     atom   77 type  1   force =    -0.00000002    0.00000000    0.00000002
     atom   78 type  1   force =    -0.00000008    0.00000011    0.00000001
     atom   79 type  1   force =     0.00000014   -0.00000000    0.00000014
     atom   80 type  1   force =    -0.00000006    0.00000008   -0.00000008
     atom   81 type  1   force =    -0.00000002   -0.00000002   -0.00000000
     atom   82 type  1   force =    -0.00000007   -0.00000007   -0.00000000
     atom   83 type  1   force =    -0.00000008   -0.00000001    0.00000011
     atom   84 type  1   force =    -0.00000001   -0.00000008    0.00000011
     atom   85 type  1   force =     0.00000001    0.00000001    0.00000001
     atom   86 type  1   force =    -0.00000006   -0.00000006    0.00000007
     atom   87 type  1   force =    -0.00000006    0.00000007   -0.00000006
     atom   88 type  1   force =     0.00000007   -0.00000006   -0.00000006
     atom   89 type  1   force =     0.00000002    0.00000002    0.00000000
     atom   90 type  1   force =     0.00000014    0.00000014    0.00000000
     atom   91 type  1   force =    -0.00000006    0.00000007    0.00000006
     atom   92 type  1   force =     0.00000007   -0.00000006    0.00000006
     atom   93 type  1   force =     0.00000001    0.00000001   -0.00000001
     atom   94 type  1   force =    -0.00000006   -0.00000006   -0.00000007
     atom   95 type  1   force =    -0.00000008   -0.00000001   -0.00000011
     atom   96 type  1   force =    -0.00000001   -0.00000008   -0.00000011
     atom   97 type  1   force =    -0.00000013    0.00000000   -0.00000000
     atom   98 type  1   force =    -0.00000007    0.00000007   -0.00000000
     atom   99 type  1   force =    -0.00000004    0.00000000    0.00000011
     atom  100 type  1   force =    -0.00000001    0.00000008    0.00000011
     atom  101 type  1   force =     0.00000002    0.00000000    0.00000002
     atom  102 type  1   force =    -0.00000006    0.00000006    0.00000007
     atom  103 type  1   force =     0.00000014    0.00000000    0.00000014
     atom  104 type  1   force =     0.00000007    0.00000006   -0.00000006
     atom  105 type  1   force =     0.00000018    0.00000000   -0.00000000
     atom  106 type  1   force =     0.00000014   -0.00000014    0.00000000
     atom  107 type  1   force =     0.00000014    0.00000000   -0.00000014
     atom  108 type  1   force =     0.00000007    0.00000006    0.00000006
     atom  109 type  1   force =     0.00000002   -0.00000000   -0.00000002
     atom  110 type  1   force =    -0.00000006    0.00000006   -0.00000007
     atom  111 type  1   force =    -0.00000004   -0.00000000   -0.00000011
     atom  112 type  1   force =    -0.00000001    0.00000008   -0.00000011
     atom  113 type  1   force =    -0.00000002    0.00000002    0.00000000
     atom  114 type  1   force =     0.00000014    0.00000014   -0.00000000
     atom  115 type  1   force =    -0.00000008    0.00000001    0.00000011
     atom  116 type  1   force =    -0.00000006   -0.00000008    0.00000008
     atom  117 type  1   force =     0.00000001   -0.00000001    0.00000001
     atom  118 type  1   force =    -0.00000008   -0.00000011   -0.00000001
     atom  119 type  1   force =    -0.00000006   -0.00000007   -0.00000006
     atom  120 type  1   force =    -0.00000001   -0.00000011   -0.00000008
     atom  121 type  1   force =     0.00000002   -0.00000002    0.00000000
     atom  122 type  1   force =    -0.00000004   -0.00000011    0.00000000
     atom  123 type  1   force =    -0.00000006   -0.00000007    0.00000006
     atom  124 type  1   force =    -0.00000001   -0.00000011    0.00000008
     atom  125 type  1   force =     0.00000001   -0.00000001   -0.00000001
     atom  126 type  1   force =    -0.00000008   -0.00000011    0.00000001
     atom  127 type  1   force =    -0.00000008    0.00000001   -0.00000011
     atom  128 type  1   force =    -0.00000006   -0.00000008   -0.00000008
     atom  129 type  1   force =     0.00000000    0.00000000    0.00000000
     atom  130 type  1   force =    -0.00000014   -0.00000014   -0.00000000
     atom  131 type  1   force =    -0.00000014   -0.00000000   -0.00000014
     atom  132 type  1   force =     0.00000000   -0.00000012   -0.00000012
     atom  133 type  1   force =     0.00000000    0.00000000   -0.00000013
     atom  134 type  1   force =     0.00000008    0.00000011   -0.00000001
     atom  135 type  1   force =     0.00000007    0.00000000   -0.00000007
     atom  136 type  1   force =     0.00000000    0.00000011   -0.00000004
     atom  137 type  1   force =     0.00000000    0.00000000    0.00000000
     atom  138 type  1   force =     0.00000004    0.00000011    0.00000000
     atom  139 type  1   force =     0.00000007   -0.00000000    0.00000007
     atom  140 type  1   force =    -0.00000000    0.00000011    0.00000004
     atom  141 type  1   force =     0.00000000   -0.00000000    0.00000013
     atom  142 type  1   force =     0.00000008    0.00000011    0.00000001
     atom  143 type  1   force =    -0.00000014    0.00000000    0.00000014
     atom  144 type  1   force =     0.00000000   -0.00000012    0.00000012
     atom  145 type  1   force =     0.00000000   -0.00000013   -0.00000000
     atom  146 type  1   force =     0.00000007   -0.00000007   -0.00000000
     atom  147 type  1   force =     0.00000008   -0.00000001    0.00000011
     atom  148 type  1   force =    -0.00000000   -0.00000004    0.00000011
     atom  149 type  1   force =     0.00000000    0.00000002    0.00000002
     atom  150 type  1   force =     0.00000006   -0.00000006    0.00000007
     atom  151 type  1   force =     0.00000006    0.00000007   -0.00000006
     atom  152 type  1   force =    -0.00000000    0.00000014    0.00000014
     atom  153 type  1   force =     0.00000000    0.00000018    0.00000000
     atom  154 type  1   force =    -0.00000014    0.00000014   -0.00000000
     atom  155 type  1   force =     0.00000006    0.00000007    0.00000006
     atom  156 type  1   force =     0.00000000    0.00000014   -0.00000014
     atom  157 type  1   force =     0.00000000    0.00000002   -0.00000002
     atom  158 type  1   force =     0.00000006   -0.00000006   -0.00000007
     atom  159 type  1   force =     0.00000008   -0.00000001   -0.00000011
     atom  160 type  1   force =     0.00000000   -0.00000004   -0.00000011
     atom  161 type  1   force =     0.00000000    0.00000000    0.00000000
     atom  162 type  1   force =     0.00000007    0.00000007    0.00000000
     atom  163 type  1   force =     0.00000004    0.00000000    0.00000011
     atom  164 type  1   force =     0.00000000    0.00000004    0.00000011
     atom  165 type  1   force =     0.00000000    0.00000000    0.00000018
     atom  166 type  1   force =     0.00000006    0.00000006    0.00000007
     atom  167 type  1   force =    -0.00000014    0.00000000    0.00000014
     atom  168 type  1   force =     0.00000000   -0.00000014    0.00000014
     atom  169 type  1   force =     0.00000000    0.00000000    0.00000000
     atom  170 type  1   force =    -0.00000014   -0.00000014    0.00000000
     atom  171 type  1   force =    -0.00000014   -0.00000000   -0.00000014
     atom  172 type  1   force =     0.00000000   -0.00000014   -0.00000014
     atom  173 type  1   force =     0.00000000    0.00000000   -0.00000018
     atom  174 type  1   force =     0.00000006    0.00000006   -0.00000007
     atom  175 type  1   force =     0.00000004    0.00000000   -0.00000011
     atom  176 type  1   force =     0.00000000    0.00000004   -0.00000011
     atom  177 type  1   force =     0.00000000    0.00000013    0.00000000
     atom  178 type  1   force =    -0.00000014    0.00000014    0.00000000
     atom  179 type  1   force =     0.00000008    0.00000001    0.00000011
     atom  180 type  1   force =     0.00000000    0.00000012   -0.00000012
     atom  181 type  1   force =    -0.00000000   -0.00000002    0.00000002
     atom  182 type  1   force =     0.00000008   -0.00000011   -0.00000001
     atom  183 type  1   force =     0.00000006   -0.00000007   -0.00000006
     atom  184 type  1   force =     0.00000000   -0.00000011   -0.00000004
     atom  185 type  1   force =     0.00000000   -0.00000018    0.00000000
     atom  186 type  1   force =     0.00000004   -0.00000011    0.00000000
     atom  187 type  1   force =     0.00000006   -0.00000007    0.00000006
     atom  188 type  1   force =     0.00000000   -0.00000011    0.00000004
     atom  189 type  1   force =    -0.00000000   -0.00000002   -0.00000002
     atom  190 type  1   force =     0.00000008   -0.00000011    0.00000001
     atom  191 type  1   force =     0.00000008    0.00000001   -0.00000011
     atom  192 type  1   force =    -0.00000000    0.00000012    0.00000012
     atom  193 type  1   force =    -0.00000006    0.00000000    0.00000000
     atom  194 type  1   force =    -0.00000001    0.00000001    0.00000000
     atom  195 type  1   force =    -0.00000001    0.00000000    0.00000001
     atom  196 type  1   force =     0.00000006    0.00000008    0.00000008
     atom  197 type  1   force =     0.00000002    0.00000000   -0.00000002
     atom  198 type  1   force =    -0.00000008    0.00000008   -0.00000006
     atom  199 type  1   force =     0.00000014    0.00000000    0.00000014
     atom  200 type  1   force =     0.00000001    0.00000011   -0.00000008
     atom  201 type  1   force =     0.00000013    0.00000000    0.00000000
     atom  202 type  1   force =     0.00000012   -0.00000012   -0.00000000
     atom  203 type  1   force =     0.00000014    0.00000000   -0.00000014
     atom  204 type  1   force =     0.00000001    0.00000011    0.00000008
     atom  205 type  1   force =     0.00000002   -0.00000000    0.00000002
     atom  206 type  1   force =    -0.00000008    0.00000008    0.00000006
     atom  207 type  1   force =    -0.00000001    0.00000000   -0.00000001
     atom  208 type  1   force =     0.00000006    0.00000008   -0.00000008
     atom  209 type  1   force =     0.00000002   -0.00000002    0.00000000
     atom  210 type  1   force =     0.00000014    0.00000014    0.00000000
     atom  211 type  1   force =    -0.00000008   -0.00000006    0.00000008
     atom  212 type  1   force =     0.00000001   -0.00000008    0.00000011
     atom  213 type  1   force =    -0.00000001    0.00000001    0.00000001
     atom  214 type  1   force =    -0.00000011   -0.00000008   -0.00000001
     atom  215 type  1   force =    -0.00000011   -0.00000001   -0.00000008
     atom  216 type  1   force =    -0.00000007   -0.00000006   -0.00000006
     atom  217 type  1   force =    -0.00000002    0.00000002   -0.00000000
     atom  218 type  1   force =    -0.00000011   -0.00000004   -0.00000000
     atom  219 type  1   force =    -0.00000011   -0.00000001    0.00000008
     atom  220 type  1   force =    -0.00000007   -0.00000006    0.00000006
     atom  221 type  1   force =    -0.00000001    0.00000001   -0.00000001
     atom  222 type  1   force =    -0.00000011   -0.00000008    0.00000001
     atom  223 type  1   force =    -0.00000008   -0.00000006   -0.00000008
     atom  224 type  1   force =     0.00000001   -0.00000008   -0.00000011
     atom  225 type  1   force =     0.00000013    0.00000000   -0.00000000
     atom  226 type  1   force =     0.00000014   -0.00000014   -0.00000000
     atom  227 type  1   force =     0.00000012   -0.00000000   -0.00000012
     atom  228 type  1   force =     0.00000001    0.00000008    0.00000011
     atom  229 type  1   force =    -0.00000002    0.00000000    0.00000002
     atom  230 type  1   force =    -0.00000011    0.00000008   -0.00000001
     atom  231 type  1   force =    -0.00000011    0.00000000   -0.00000004
     atom  232 type  1   force =    -0.00000007    0.00000006   -0.00000006
     atom  233 type  1   force =    -0.00000018    0.00000000    0.00000000
     atom  234 type  1   force =    -0.00000011    0.00000004    0.00000000
     atom  235 type  1   force =    -0.00000011    0.00000000    0.00000004
     atom  236 type  1   force =    -0.00000007    0.00000006    0.00000006
     atom  237 type  1   force =    -0.00000002   -0.00000000   -0.00000002
     atom  238 type  1   force =    -0.00000011    0.00000008    0.00000001
     atom  239 type  1   force =     0.00000012   -0.00000000    0.00000012
     atom  240 type  1   force =     0.00000001    0.00000008   -0.00000011
     atom  241 type  1   force =     0.00000002    0.00000002    0.00000000
     atom  242 type  1   force =    -0.00000001   -0.00000001   -0.00000000
     atom  243 type  1   force =    -0.00000008    0.00000006    0.00000008
     atom  244 type  1   force =     0.00000006   -0.00000008    0.00000008
     atom  245 type  1   force =    -0.00000001   -0.00000001    0.00000001
     atom  246 type  1   force =    -0.00000008   -0.00000008   -0.00000006
     atom  247 type  1   force =    -0.00000011    0.00000001   -0.00000008
     atom  248 type  1   force =     0.00000001   -0.00000011   -0.00000008
     atom  249 type  1   force =    -0.00000002   -0.00000002    0.00000000
     atom  250 type  1   force =     0.00000012    0.00000012    0.00000000
     atom  251 type  1   force =    -0.00000011    0.00000001    0.00000008
     atom  252 type  1   force =     0.00000001   -0.00000011    0.00000008
     atom  253 type  1   force =    -0.00000001   -0.00000001   -0.00000001
     atom  254 type  1   force =    -0.00000008   -0.00000008    0.00000006
     atom  255 type  1   force =    -0.00000008    0.00000006   -0.00000008
     atom  256 type  1   force =     0.00000006   -0.00000008   -0.00000008

     Total force =     0.000000     Total SCF correction =     0.000000


     entering subroutine stress ...

          total   stress  (Ry/bohr**3)                   (kbar)     P=   -0.14
  -0.00000094   0.00000000   0.00000000         -0.14      0.00      0.00
   0.00000000  -0.00000094   0.00000000          0.00     -0.14      0.00
   0.00000000   0.00000000  -0.00000094          0.00      0.00     -0.14


     Writing output data file 7d8a32957a9d.save
 
     init_run     :     48.23s CPU     51.30s WALL (       2 calls)
     electrons    :   3322.53s CPU   3473.74s WALL (       6 calls)
     update_pot   :     14.11s CPU     14.76s WALL (       4 calls)
     forces       :    153.18s CPU    154.35s WALL (       6 calls)
     stress       :    492.93s CPU    494.59s WALL (       6 calls)

     Called by init_run:
     wfcinit      :     34.94s CPU     37.11s WALL (       2 calls)
     potinit      :      1.74s CPU      2.03s WALL (       2 calls)

     Called by electrons:
     c_bands      :   2461.47s CPU   2571.84s WALL (      84 calls)
     sum_band     :    481.68s CPU    505.01s WALL (      84 calls)
     v_of_rho     :     11.26s CPU     17.30s WALL (      85 calls)
     newd         :    323.27s CPU    326.16s WALL (      85 calls)
     mix_rho      :     16.42s CPU     17.67s WALL (      84 calls)

     Called by c_bands:
     init_us_2    :      7.71s CPU      7.83s WALL (     174 calls)
     cegterg      :   2433.11s CPU   2543.03s WALL (      84 calls)

     Called by *egterg:
     h_psi        :    932.32s CPU   1031.31s WALL (     412 calls)
     s_psi        :    289.29s CPU    290.74s WALL (     412 calls)
     g_psi        :      3.94s CPU      3.94s WALL (     326 calls)
     cdiaghg      :    746.54s CPU    747.61s WALL (     401 calls)

     Called by h_psi:
     add_vuspsi   :    287.39s CPU    288.81s WALL (     412 calls)

     General routines
     calbec       :    439.36s CPU    440.44s WALL (     512 calls)
     fft          :     17.73s CPU     29.35s WALL (    1510 calls)
     ffts         :      1.08s CPU      2.09s WALL (     169 calls)
     fftw         :    338.57s CPU    452.77s WALL (  246214 calls)
     interpolate  :      3.21s CPU      5.64s WALL (     169 calls)
     davcio       :      0.00s CPU      0.03s WALL (       2 calls)
 
     Parallel routines
     fft_scatter  :    179.30s CPU    263.49s WALL (  247893 calls)
 
     PAW routines
     PAW_pot      :     37.12s CPU     38.82s WALL (      89 calls)
     PAW_ddot     :     14.53s CPU     14.80s WALL (    1906 calls)
     PAW_symme    :      0.16s CPU      0.16s WALL (     173 calls)
 
     PWSCF        :     1h 7m CPU        1h10m WALL

 
   This run was terminated on:   1:48:32  28Sep2013            

=------------------------------------------------------------------------------=
   JOB DONE.
=------------------------------------------------------------------------------=
