
     Program PWSCF v.6.7MaX starts on 25Apr2022 at 16: 3:49 

     This program is part of the open-source Quantum ESPRESSO suite
     for quantum simulation of materials; please cite
         "P. Giannozzi et al., J. Phys.:Condens. Matter 21 395502 (2009);
         "P. Giannozzi et al., J. Phys.:Condens. Matter 29 465901 (2017);
          URL http://www.quantum-espresso.org", 
     in publications or presentations arising from this work. More details at
     http://www.quantum-espresso.org/quote

     Parallel version (MPI & OpenMP), running on      72 processor cores
     Number of MPI processes:                72
     Threads/MPI process:                     1

     MPI processes distributed on     1 nodes
     R & G space division:  proc/nbgrp/npool/nimage =      72
     Reading input from feslab1.in
Warning: card &CELL ignored
Warning: card CELL_DYNAMICS = 'BFGS', ignored
Warning: card CELL_FACTOR = 2.0, ignored
Warning: card PRESS = 0.0, ignored
Warning: card / ignored

     Current dimensions of program PWSCF are:
     Max number of different atomic species (ntypx) = 10
     Max number of k-points (npk) =  40000
     Max angular momentum in pseudopotentials (lmaxx) =  3
     file Fe.pbe-spn-kjpaw_psl.1.0.0.UPF: wavefunction(s)  3P 3D renormalized
     file Fe.pbe-spn-kjpaw_psl.1.0.0.UPF: wavefunction(s)  3P 3D renormalized

     gamma-point specific algorithms are used

     Subspace diagonalization in iterative solution of the eigenvalue problem:
     one sub-group per band group will be used
     ELPA distributed-memory algorithm (size of sub-group:  8*  8 procs)

     Found symmetry operation: I + (  0.0000  0.2500 -0.0000)
     This is a supercell, fractional translations are disabled
     Message from routine setup:
     using ibrav=0 with symmetry is DISCOURAGED, use correct ibrav instead
 
     Parallelization info
     --------------------
     sticks:   dense  smooth     PW     G-vecs:    dense   smooth      PW
     Min         333     220     53                38016    20412    2546
     Max         336     222     56                38038    20426    2560
     Sum       24049   15899   3985              2738239  1469969  183817
 


     bravais-lattice index     =            0
     lattice parameter (alat)  =      25.8600  a.u.
     unit-cell volume          =   18186.5006 (a.u.)^3
     number of atoms/cell      =          128
     number of atomic types    =            2
     number of electrons       =      2048.00
     number of Kohn-Sham states=         1229
     kinetic-energy cutoff     =      71.0000  Ry
     charge density cutoff     =     430.0000  Ry
     scf convergence threshold =      1.0E-08
     mixing beta               =       0.3000
     number of iterations used =           10  local-TF  mixing
     energy convergence thresh.=      1.0E-04
     force convergence thresh. =      1.0E-03
     Exchange-correlation= SLA  PW   PBX  PBC
                           (   1   4   3   4   0   0   0)
     nstep                     =           40


     celldm(1)=  25.860000  celldm(2)=   0.000000  celldm(3)=   0.000000
     celldm(4)=   0.000000  celldm(5)=   0.000000  celldm(6)=   0.000000

     crystal axes: (cart. coord. in units of alat)
               a(1) = (   1.000000   0.000000   0.000000 )  
               a(2) = (   0.000000   1.051631   0.000000 )  
               a(3) = (   0.000000   0.000000   1.000000 )  

     reciprocal axes: (cart. coord. in units 2 pi/alat)
               b(1) = (  1.000000  0.000000  0.000000 )  
               b(2) = (  0.000000  0.950903  0.000000 )  
               b(3) = (  0.000000  0.000000  1.000000 )  


     PseudoPot. # 1 for Fe read from file:
     /rds/homes/b/bxp912/pp/Fe.pbe-spn-kjpaw_psl.1.0.0.UPF
     MD5 check sum: 42f43b795421b414b0dc916aa790dbcb
     Pseudo is Projector augmented-wave + core cor, Zval = 16.0
     Generated using &quot;atomic&quot; code by A. Dal Corso  v.6.3
     Shape of augmentation charge: PSQ
     Using radial grid of 1191 points,  6 beta functions with: 
                l(1) =   0
                l(2) =   0
                l(3) =   1
                l(4) =   1
                l(5) =   2
                l(6) =   2
     Q(r) pseudized with 0 coefficients 


     PseudoPot. # 2 for Fe read from file:
     /rds/homes/b/bxp912/pp/Fe.pbe-spn-kjpaw_psl.1.0.0.UPF
     MD5 check sum: 42f43b795421b414b0dc916aa790dbcb
     Pseudo is Projector augmented-wave + core cor, Zval = 16.0
     Generated using &quot;atomic&quot; code by A. Dal Corso  v.6.3
     Shape of augmentation charge: PSQ
     Using radial grid of 1191 points,  6 beta functions with: 
                l(1) =   0
                l(2) =   0
                l(3) =   1
                l(4) =   1
                l(5) =   2
                l(6) =   2
     Q(r) pseudized with 0 coefficients 


     atomic species   valence    mass     pseudopotential
        Fe1           16.00    55.84500     Fe( 1.00)
        Fe2           16.00    55.84500     Fe( 1.00)

     Starting magnetic structure 
     atomic species   magnetization
        Fe1          0.100
        Fe2         -0.100

      2 Sym. Ops. (no inversion) found



   Cartesian axes

     site n.     atom                  positions (alat units)
         1           Fe1 tau(   1) = (   0.0625000   0.0657270   0.3170865  )
         2           Fe2 tau(   2) = (   0.1874999   0.1971808   0.3170867  )
         3           Fe1 tau(   3) = (   0.1875000   0.0657269   0.4418555  )
         4           Fe2 tau(   4) = (   0.0624999   0.1971809   0.4418555  )
         5           Fe1 tau(   5) = (   0.0625000   0.0657270   0.5581444  )
         6           Fe2 tau(   6) = (   0.1875000   0.1971809   0.5581443  )
         7           Fe1 tau(   7) = (   0.1874999   0.0657271   0.6829136  )
         8           Fe2 tau(   8) = (   0.0625001   0.1971808   0.6829136  )
         9           Fe1 tau(   9) = (   0.0625000   0.3286346   0.3170865  )
        10           Fe2 tau(  10) = (   0.1875000   0.4600889   0.3170865  )
        11           Fe1 tau(  11) = (   0.1875000   0.3286349   0.4418556  )
        12           Fe2 tau(  12) = (   0.0625001   0.4600888   0.4418556  )
        13           Fe1 tau(  13) = (   0.0624999   0.3286348   0.5581445  )
        14           Fe2 tau(  14) = (   0.1875001   0.4600887   0.5581444  )
        15           Fe1 tau(  15) = (   0.1875000   0.3286349   0.6829134  )
        16           Fe2 tau(  16) = (   0.0624999   0.4600888   0.6829134  )
        17           Fe1 tau(  17) = (   0.0624999   0.5915427   0.3170866  )
        18           Fe2 tau(  18) = (   0.1875000   0.7229966   0.3170866  )
        19           Fe1 tau(  19) = (   0.1875001   0.5915428   0.4418556  )
        20           Fe2 tau(  20) = (   0.0624999   0.7229967   0.4418555  )
        21           Fe1 tau(  21) = (   0.0625001   0.5915427   0.5581444  )
        22           Fe2 tau(  22) = (   0.1875000   0.7229966   0.5581444  )
        23           Fe1 tau(  23) = (   0.1875000   0.5915426   0.6829135  )
        24           Fe2 tau(  24) = (   0.0625000   0.7229969   0.6829135  )
        25           Fe1 tau(  25) = (   0.0625001   0.8544507   0.3170864  )
        26           Fe2 tau(  26) = (   0.1874999   0.9859044   0.3170864  )
        27           Fe1 tau(  27) = (   0.1875000   0.8544505   0.4418557  )
        28           Fe2 tau(  28) = (   0.0625000   0.9859045   0.4418556  )
        29           Fe1 tau(  29) = (   0.0624999   0.8544506   0.5581445  )
        30           Fe2 tau(  30) = (   0.1875000   0.9859046   0.5581445  )
        31           Fe1 tau(  31) = (   0.1874999   0.8544507   0.6829133  )
        32           Fe2 tau(  32) = (   0.0625000   0.9859045   0.6829135  )
        33           Fe1 tau(  33) = (   0.3124998   0.0657270   0.3170865  )
        34           Fe2 tau(  34) = (   0.4375001   0.1971809   0.3170865  )
        35           Fe1 tau(  35) = (   0.4375000   0.0657270   0.4418556  )
        36           Fe2 tau(  36) = (   0.3125000   0.1971809   0.4418556  )
        37           Fe1 tau(  37) = (   0.3124999   0.0657269   0.5581445  )
        38           Fe2 tau(  38) = (   0.4374999   0.1971810   0.5581444  )
        39           Fe1 tau(  39) = (   0.4375000   0.0657268   0.6829134  )
        40           Fe2 tau(  40) = (   0.3125000   0.1971809   0.6829134  )
        41           Fe1 tau(  41) = (   0.3125000   0.3286348   0.3170867  )
        42           Fe2 tau(  42) = (   0.4375000   0.4600887   0.3170864  )
        43           Fe1 tau(  43) = (   0.4375000   0.3286349   0.4418556  )
        44           Fe2 tau(  44) = (   0.3125000   0.4600888   0.4418556  )
        45           Fe1 tau(  45) = (   0.3125000   0.3286348   0.5581443  )
        46           Fe2 tau(  46) = (   0.4375000   0.4600888   0.5581445  )
        47           Fe1 tau(  47) = (   0.4375000   0.3286349   0.6829136  )
        48           Fe2 tau(  48) = (   0.3125001   0.4600888   0.6829136  )
        49           Fe1 tau(  49) = (   0.3125001   0.5915427   0.3170864  )
        50           Fe2 tau(  50) = (   0.4375000   0.7229966   0.3170864  )
        51           Fe1 tau(  51) = (   0.4375000   0.5915427   0.4418555  )
        52           Fe2 tau(  52) = (   0.3125000   0.7229966   0.4418557  )
        53           Fe1 tau(  53) = (   0.3125000   0.5915427   0.5581444  )
        54           Fe2 tau(  54) = (   0.4375000   0.7229966   0.5581444  )
        55           Fe1 tau(  55) = (   0.4375000   0.5915427   0.6829136  )
        56           Fe2 tau(  56) = (   0.3125000   0.7229967   0.6829133  )
        57           Fe1 tau(  57) = (   0.3125000   0.8544505   0.3170866  )
        58           Fe2 tau(  58) = (   0.4375000   0.9859046   0.3170866  )
        59           Fe1 tau(  59) = (   0.4374999   0.8544505   0.4418556  )
        60           Fe2 tau(  60) = (   0.3124999   0.9859046   0.4418555  )
        61           Fe1 tau(  61) = (   0.3125000   0.8544506   0.5581444  )
        62           Fe2 tau(  62) = (   0.4375000   0.9859045   0.5581444  )
        63           Fe1 tau(  63) = (   0.4375001   0.8544506   0.6829135  )
        64           Fe2 tau(  64) = (   0.3124998   0.9859045   0.6829135  )
        65           Fe1 tau(  65) = (   0.5625000   0.0657268   0.3170866  )
        66           Fe2 tau(  66) = (   0.6875000   0.1971809   0.3170866  )
        67           Fe1 tau(  67) = (   0.6875001   0.0657269   0.4418555  )
        68           Fe2 tau(  68) = (   0.5625001   0.1971810   0.4418556  )
        69           Fe1 tau(  69) = (   0.5625000   0.0657270   0.5581444  )
        70           Fe2 tau(  70) = (   0.6875000   0.1971809   0.5581444  )
        71           Fe1 tau(  71) = (   0.6875002   0.0657270   0.6829135  )
        72           Fe2 tau(  72) = (   0.5624999   0.1971809   0.6829135  )
        73           Fe1 tau(  73) = (   0.5625000   0.3286349   0.3170864  )
        74           Fe2 tau(  74) = (   0.6874999   0.4600888   0.3170864  )
        75           Fe1 tau(  75) = (   0.6875000   0.3286348   0.4418557  )
        76           Fe2 tau(  76) = (   0.5625000   0.4600888   0.4418555  )
        77           Fe1 tau(  77) = (   0.5625000   0.3286349   0.5581444  )
        78           Fe2 tau(  78) = (   0.6875000   0.4600888   0.5581444  )
        79           Fe1 tau(  79) = (   0.6875000   0.3286348   0.6829133  )
        80           Fe2 tau(  80) = (   0.5625000   0.4600887   0.6829136  )
        81           Fe1 tau(  81) = (   0.5625000   0.5915427   0.3170864  )
        82           Fe2 tau(  82) = (   0.6875000   0.7229967   0.3170867  )
        83           Fe1 tau(  83) = (   0.6875000   0.5915427   0.4418556  )
        84           Fe2 tau(  84) = (   0.5625000   0.7229966   0.4418556  )
        85           Fe1 tau(  85) = (   0.5625000   0.5915427   0.5581445  )
        86           Fe2 tau(  86) = (   0.6875000   0.7229966   0.5581443  )
        87           Fe1 tau(  87) = (   0.6874999   0.5915427   0.6829136  )
        88           Fe2 tau(  88) = (   0.5625000   0.7229966   0.6829136  )
        89           Fe1 tau(  89) = (   0.5624999   0.8544506   0.3170865  )
        90           Fe2 tau(  90) = (   0.6875002   0.9859045   0.3170865  )
        91           Fe1 tau(  91) = (   0.6875000   0.8544506   0.4418556  )
        92           Fe2 tau(  92) = (   0.5625000   0.9859045   0.4418556  )
        93           Fe1 tau(  93) = (   0.5625001   0.8544505   0.5581444  )
        94           Fe2 tau(  94) = (   0.6875001   0.9859046   0.5581445  )
        95           Fe1 tau(  95) = (   0.6875000   0.8544505   0.6829134  )
        96           Fe2 tau(  96) = (   0.5625000   0.9859046   0.6829134  )
        97           Fe1 tau(  97) = (   0.8125001   0.0657271   0.3170864  )
        98           Fe2 tau(  98) = (   0.9374999   0.1971808   0.3170864  )
        99           Fe1 tau(  99) = (   0.9375000   0.0657270   0.4418556  )
       100           Fe2 tau( 100) = (   0.8125000   0.1971809   0.4418557  )
       101           Fe1 tau( 101) = (   0.8125000   0.0657269   0.5581445  )
       102           Fe2 tau( 102) = (   0.9375001   0.1971809   0.5581445  )
       103           Fe1 tau( 103) = (   0.9375000   0.0657270   0.6829135  )
       104           Fe2 tau( 104) = (   0.8125001   0.1971808   0.6829133  )
       105           Fe1 tau( 105) = (   0.8125000   0.3286349   0.3170866  )
       106           Fe2 tau( 106) = (   0.9375001   0.4600888   0.3170866  )
       107           Fe1 tau( 107) = (   0.9375001   0.3286348   0.4418555  )
       108           Fe2 tau( 108) = (   0.8124999   0.4600887   0.4418556  )
       109           Fe1 tau( 109) = (   0.8125000   0.3286349   0.5581444  )
       110           Fe2 tau( 110) = (   0.9374999   0.4600888   0.5581444  )
       111           Fe1 tau( 111) = (   0.9375000   0.3286346   0.6829135  )
       112           Fe2 tau( 112) = (   0.8125000   0.4600889   0.6829135  )
       113           Fe1 tau( 113) = (   0.8125000   0.5915426   0.3170865  )
       114           Fe2 tau( 114) = (   0.9375000   0.7229969   0.3170865  )
       115           Fe1 tau( 115) = (   0.9374999   0.5915427   0.4418556  )
       116           Fe2 tau( 116) = (   0.8125000   0.7229966   0.4418556  )
       117           Fe1 tau( 117) = (   0.8124999   0.5915428   0.5581444  )
       118           Fe2 tau( 118) = (   0.9375001   0.7229967   0.5581445  )
       119           Fe1 tau( 119) = (   0.9375001   0.5915427   0.6829134  )
       120           Fe2 tau( 120) = (   0.8125000   0.7229966   0.6829134  )
       121           Fe1 tau( 121) = (   0.8125001   0.8544507   0.3170867  )
       122           Fe2 tau( 122) = (   0.9375000   0.9859045   0.3170865  )
       123           Fe1 tau( 123) = (   0.9375001   0.8544506   0.4418555  )
       124           Fe2 tau( 124) = (   0.8125000   0.9859046   0.4418555  )
       125           Fe1 tau( 125) = (   0.8125000   0.8544505   0.5581443  )
       126           Fe2 tau( 126) = (   0.9375000   0.9859045   0.5581444  )
       127           Fe1 tau( 127) = (   0.9374999   0.8544507   0.6829136  )
       128           Fe2 tau( 128) = (   0.8125001   0.9859044   0.6829136  )

     number of k points=     1  Marzari-Vanderbilt smearing, width (Ry)=  0.0400
                       cart. coord. in units 2pi/alat
        k(    1) = (   0.0000000   0.0000000   0.0000000), wk =   1.0000000

     Dense  grid:  1369120 G-vectors     FFT dimensions: ( 180, 180, 180)

     Smooth grid:   734985 G-vectors     FFT dimensions: ( 144, 150, 144)

     Estimated max dynamical RAM per process >     314.03 MB

     Estimated total dynamical RAM >      22.08 GB

     Check: negative core charge=   -0.000004
     Generating pointlists ...
     new r_m :   0.0704 (alat units)  1.8212 (a.u.) for type    1
     new r_m :   0.0704 (alat units)  1.8212 (a.u.) for type    2

     Initial potential from superposition of free atoms

     starting charge 2047.94399, renormalised to 2048.00000

     negative rho (up, down):  2.289E-04 2.289E-04
     Starting wfcs are 1280 randomized atomic wfcs
     Checking if some PAW data can be deallocated... 

     total cpu time spent up to now is        9.1 secs

     Self-consistent Calculation

     iteration #  1     ecut=    71.00 Ry     beta= 0.30
     Davidson diagonalization with overlap
     ethr =  1.00E-02,  avg # of iterations =  4.5

     negative rho (up, down):  1.934E-03 1.926E-01

     total cpu time spent up to now is       35.6 secs

     total energy              =  -42133.02102166 Ry
     estimated scf accuracy    <     201.38071610 Ry

     total magnetization       =    -0.83 Bohr mag/cell
     absolute magnetization    =   209.45 Bohr mag/cell

     iteration #  2     ecut=    71.00 Ry     beta= 0.30
     Davidson diagonalization with overlap
     ethr =  9.83E-03,  avg # of iterations =  1.5

     negative rho (up, down):  7.094E-03 1.711E-01

     total cpu time spent up to now is       53.7 secs

     total energy              =  -42132.92290879 Ry
     estimated scf accuracy    <     216.49446575 Ry

     total magnetization       =    -1.44 Bohr mag/cell
     absolute magnetization    =   153.51 Bohr mag/cell

     iteration #  3     ecut=    71.00 Ry     beta= 0.30
     Davidson diagonalization with overlap
     ethr =  9.83E-03,  avg # of iterations =  1.0

     negative rho (up, down):  1.314E-02 1.250E-01

     total cpu time spent up to now is       70.7 secs

     total energy              =  -42141.59175679 Ry
     estimated scf accuracy    <      88.72775766 Ry

     total magnetization       =    -0.16 Bohr mag/cell
     absolute magnetization    =   203.30 Bohr mag/cell

     iteration #  4     ecut=    71.00 Ry     beta= 0.30
     Davidson diagonalization with overlap
     ethr =  4.33E-03,  avg # of iterations =  2.0

     negative rho (up, down):  4.604E-03 4.111E-02

     total cpu time spent up to now is       90.4 secs

     total energy              =  -42139.78338769 Ry
     estimated scf accuracy    <      74.65649465 Ry

     total magnetization       =    -0.33 Bohr mag/cell
     absolute magnetization    =   204.51 Bohr mag/cell

     iteration #  5     ecut=    71.00 Ry     beta= 0.30
     Davidson diagonalization with overlap
     ethr =  3.65E-03,  avg # of iterations =  1.0

     negative rho (up, down):  1.523E-03 1.253E-02

     total cpu time spent up to now is      107.1 secs

     total energy              =  -42139.84331162 Ry
     estimated scf accuracy    <      39.12030271 Ry

     total magnetization       =    -0.82 Bohr mag/cell
     absolute magnetization    =   206.35 Bohr mag/cell

     iteration #  6     ecut=    71.00 Ry     beta= 0.30
     Davidson diagonalization with overlap
     ethr =  1.91E-03,  avg # of iterations =  1.5

     negative rho (up, down):  2.019E-03 4.097E-03

     total cpu time spent up to now is      125.4 secs

     total energy              =  -42139.36557274 Ry
     estimated scf accuracy    <      17.84144055 Ry

     total magnetization       =    -0.30 Bohr mag/cell
     absolute magnetization    =   208.66 Bohr mag/cell

     iteration #  7     ecut=    71.00 Ry     beta= 0.30
     Davidson diagonalization with overlap
     ethr =  8.71E-04,  avg # of iterations =  4.0

     negative rho (up, down):  3.042E-03 7.011E-03

     total cpu time spent up to now is      146.1 secs

     total energy              =  -42139.89194635 Ry
     estimated scf accuracy    <       3.84456531 Ry

     total magnetization       =    -1.34 Bohr mag/cell
     absolute magnetization    =   213.62 Bohr mag/cell

     iteration #  8     ecut=    71.00 Ry     beta= 0.30
     Davidson diagonalization with overlap
     ethr =  1.88E-04,  avg # of iterations =  9.0

     negative rho (up, down):  1.936E-03 1.894E-03

     total cpu time spent up to now is      169.4 secs

     total energy              =  -42139.91735639 Ry
     estimated scf accuracy    <       1.52003471 Ry

     total magnetization       =    -0.69 Bohr mag/cell
     absolute magnetization    =   216.58 Bohr mag/cell

     iteration #  9     ecut=    71.00 Ry     beta= 0.30
     Davidson diagonalization with overlap
     ethr =  7.42E-05,  avg # of iterations =  2.0

     negative rho (up, down):  1.847E-03 1.686E-03

     total cpu time spent up to now is      190.2 secs

     total energy              =  -42139.95970304 Ry
     estimated scf accuracy    <       1.16386729 Ry

     total magnetization       =    -0.45 Bohr mag/cell
     absolute magnetization    =   217.22 Bohr mag/cell

     iteration # 10     ecut=    71.00 Ry     beta= 0.30
     Davidson diagonalization with overlap
     ethr =  5.68E-05,  avg # of iterations =  1.5

     negative rho (up, down):  2.310E-03 2.147E-03

     total cpu time spent up to now is      208.6 secs

     total energy              =  -42139.87853591 Ry
     estimated scf accuracy    <       1.05981676 Ry

     total magnetization       =    -0.71 Bohr mag/cell
     absolute magnetization    =   218.58 Bohr mag/cell

     iteration # 11     ecut=    71.00 Ry     beta= 0.30
     Davidson diagonalization with overlap
     ethr =  5.17E-05,  avg # of iterations =  2.0

     negative rho (up, down):  3.557E-03 3.367E-03

     total cpu time spent up to now is      227.8 secs

     total energy              =  -42139.75620865 Ry
     estimated scf accuracy    <       0.85970353 Ry

     total magnetization       =    -0.55 Bohr mag/cell
     absolute magnetization    =   222.25 Bohr mag/cell

     iteration # 12     ecut=    71.00 Ry     beta= 0.30
     Davidson diagonalization with overlap
     ethr =  4.20E-05,  avg # of iterations =  2.5

     negative rho (up, down):  3.746E-03 3.638E-03

     total cpu time spent up to now is      248.0 secs

     total energy              =  -42139.74754477 Ry
     estimated scf accuracy    <       0.63122950 Ry

     total magnetization       =    -0.04 Bohr mag/cell
     absolute magnetization    =   225.16 Bohr mag/cell

     iteration # 13     ecut=    71.00 Ry     beta= 0.30
     Davidson diagonalization with overlap
     ethr =  3.08E-05,  avg # of iterations =  2.0

     negative rho (up, down):  2.938E-03 2.940E-03

     total cpu time spent up to now is      267.7 secs

     total energy              =  -42139.68890331 Ry
     estimated scf accuracy    <       0.50216400 Ry

     total magnetization       =    -0.48 Bohr mag/cell
     absolute magnetization    =   225.98 Bohr mag/cell

     iteration # 14     ecut=    71.00 Ry     beta= 0.30
     Davidson diagonalization with overlap
     ethr =  2.45E-05,  avg # of iterations =  2.0

     negative rho (up, down):  3.465E-03 3.440E-03

     total cpu time spent up to now is      287.3 secs

     total energy              =  -42139.69070717 Ry
     estimated scf accuracy    <       0.41414752 Ry

     total magnetization       =    -0.49 Bohr mag/cell
     absolute magnetization    =   225.59 Bohr mag/cell

     iteration # 15     ecut=    71.00 Ry     beta= 0.30
     Davidson diagonalization with overlap
     ethr =  2.02E-05,  avg # of iterations =  1.0

     negative rho (up, down):  1.142E-02 1.165E-02

     total cpu time spent up to now is      304.4 secs

     total energy              =  -42139.63979964 Ry
     estimated scf accuracy    <       0.36700873 Ry

     total magnetization       =    -0.02 Bohr mag/cell
     absolute magnetization    =   225.67 Bohr mag/cell

     iteration # 16     ecut=    71.00 Ry     beta= 0.30
     Davidson diagonalization with overlap
     ethr =  1.79E-05,  avg # of iterations =  5.0

     negative rho (up, down):  6.045E-02 6.161E-02

     total cpu time spent up to now is      325.6 secs

     total energy              =  -42139.60535215 Ry
     estimated scf accuracy    <       0.32471246 Ry

     total magnetization       =     0.12 Bohr mag/cell
     absolute magnetization    =   226.87 Bohr mag/cell

     iteration # 17     ecut=    71.00 Ry     beta= 0.30
     Davidson diagonalization with overlap
     ethr =  1.59E-05,  avg # of iterations =  2.0

     negative rho (up, down):  7.852E-02 7.982E-02

     total cpu time spent up to now is      344.8 secs

     total energy              =  -42139.61576568 Ry
     estimated scf accuracy    <       0.18229868 Ry

     total magnetization       =    -0.18 Bohr mag/cell
     absolute magnetization    =   225.25 Bohr mag/cell

     iteration # 18     ecut=    71.00 Ry     beta= 0.30
     Davidson diagonalization with overlap
     ethr =  8.90E-06,  avg # of iterations =  3.0

     negative rho (up, down):  1.667E-01 1.687E-01

     total cpu time spent up to now is      365.0 secs

     total energy              =  -42139.62674884 Ry
     estimated scf accuracy    <       0.13753667 Ry

     total magnetization       =     0.06 Bohr mag/cell
     absolute magnetization    =   224.20 Bohr mag/cell

     iteration # 19     ecut=    71.00 Ry     beta= 0.30
     Davidson diagonalization with overlap
     ethr =  6.72E-06,  avg # of iterations =  5.0

     negative rho (up, down):  1.281E-01 1.297E-01

     total cpu time spent up to now is      387.1 secs

     total energy              =  -42139.63034287 Ry
     estimated scf accuracy    <       0.07731772 Ry

     total magnetization       =     0.19 Bohr mag/cell
     absolute magnetization    =   224.17 Bohr mag/cell

     iteration # 20     ecut=    71.00 Ry     beta= 0.30
     Davidson diagonalization with overlap
     ethr =  3.78E-06,  avg # of iterations =  2.0

     negative rho (up, down):  2.684E-02 2.728E-02

     total cpu time spent up to now is      406.3 secs

     total energy              =  -42139.65345775 Ry
     estimated scf accuracy    <       0.06335740 Ry

     total magnetization       =     0.03 Bohr mag/cell
     absolute magnetization    =   224.29 Bohr mag/cell

     iteration # 21     ecut=    71.00 Ry     beta= 0.30
     Davidson diagonalization with overlap
     ethr =  3.09E-06,  avg # of iterations =  5.0

     negative rho (up, down):  3.508E-02 3.547E-02

     total cpu time spent up to now is      428.5 secs

     total energy              =  -42139.66491257 Ry
     estimated scf accuracy    <       0.03357336 Ry

     total magnetization       =    -0.01 Bohr mag/cell
     absolute magnetization    =   224.16 Bohr mag/cell

     iteration # 22     ecut=    71.00 Ry     beta= 0.30
     Davidson diagonalization with overlap
     c_bands:  2 eigenvalues not converged
     ethr =  1.64E-06,  avg # of iterations = 11.0

     negative rho (up, down):  4.530E-02 4.566E-02

     total cpu time spent up to now is      451.3 secs

     total energy              =  -42139.67085097 Ry
     estimated scf accuracy    <       0.01390333 Ry

     total magnetization       =     0.10 Bohr mag/cell
     absolute magnetization    =   224.43 Bohr mag/cell

     iteration # 23     ecut=    71.00 Ry     beta= 0.30
     Davidson diagonalization with overlap
     c_bands:  1 eigenvalues not converged
     ethr =  6.79E-07,  avg # of iterations = 13.0

     negative rho (up, down):  2.295E-02 2.317E-02

     total cpu time spent up to now is      479.9 secs

     total energy              =  -42139.67514242 Ry
     estimated scf accuracy    <       0.01223385 Ry

     total magnetization       =     0.07 Bohr mag/cell
     absolute magnetization    =   225.49 Bohr mag/cell

     iteration # 24     ecut=    71.00 Ry     beta= 0.30
     Davidson diagonalization with overlap
     ethr =  5.97E-07,  avg # of iterations =  7.5

     negative rho (up, down):  6.405E-03 6.512E-03

     total cpu time spent up to now is      501.1 secs

     total energy              =  -42139.67598848 Ry
     estimated scf accuracy    <       0.00634118 Ry

     total magnetization       =     0.12 Bohr mag/cell
     absolute magnetization    =   225.79 Bohr mag/cell

     iteration # 25     ecut=    71.00 Ry     beta= 0.30
     Davidson diagonalization with overlap
     ethr =  3.10E-07,  avg # of iterations =  5.0

     negative rho (up, down):  1.866E-03 1.871E-03

     total cpu time spent up to now is      523.0 secs

     total energy              =  -42139.68486798 Ry
     estimated scf accuracy    <       0.00248962 Ry

     total magnetization       =     0.08 Bohr mag/cell
     absolute magnetization    =   225.67 Bohr mag/cell

     iteration # 26     ecut=    71.00 Ry     beta= 0.30
     Davidson diagonalization with overlap
     ethr =  1.22E-07,  avg # of iterations =  5.0

     negative rho (up, down):  1.925E-03 1.929E-03

     total cpu time spent up to now is      548.3 secs

     total energy              =  -42139.68641204 Ry
     estimated scf accuracy    <       0.00188574 Ry

     total magnetization       =     0.04 Bohr mag/cell
     absolute magnetization    =   226.18 Bohr mag/cell

     iteration # 27     ecut=    71.00 Ry     beta= 0.30
     Davidson diagonalization with overlap
     ethr =  9.21E-08,  avg # of iterations =  2.0

     negative rho (up, down):  1.974E-03 1.980E-03

     total cpu time spent up to now is      568.3 secs

     total energy              =  -42139.68658494 Ry
     estimated scf accuracy    <       0.00081481 Ry

     total magnetization       =     0.05 Bohr mag/cell
     absolute magnetization    =   226.36 Bohr mag/cell

     iteration # 28     ecut=    71.00 Ry     beta= 0.30
     Davidson diagonalization with overlap
     ethr =  3.98E-08,  avg # of iterations =  5.0

     negative rho (up, down):  2.011E-03 2.014E-03

     total cpu time spent up to now is      589.7 secs

     total energy              =  -42139.68690126 Ry
     estimated scf accuracy    <       0.00026786 Ry

     total magnetization       =     0.04 Bohr mag/cell
     absolute magnetization    =   226.49 Bohr mag/cell

     iteration # 29     ecut=    71.00 Ry     beta= 0.30
     Davidson diagonalization with overlap
     ethr =  1.31E-08,  avg # of iterations =  3.5

     negative rho (up, down):  2.243E-03 2.245E-03

     total cpu time spent up to now is      610.8 secs

     total energy              =  -42139.68753270 Ry
     estimated scf accuracy    <       0.00022324 Ry

     total magnetization       =     0.05 Bohr mag/cell
     absolute magnetization    =   226.54 Bohr mag/cell

     iteration # 30     ecut=    71.00 Ry     beta= 0.30
     Davidson diagonalization with overlap
     ethr =  1.09E-08,  avg # of iterations =  5.0

     negative rho (up, down):  2.278E-03 2.280E-03

     total cpu time spent up to now is      633.7 secs

     total energy              =  -42139.68758920 Ry
     estimated scf accuracy    <       0.00012071 Ry

     total magnetization       =     0.05 Bohr mag/cell
     absolute magnetization    =   226.66 Bohr mag/cell

     iteration # 31     ecut=    71.00 Ry     beta= 0.30
     Davidson diagonalization with overlap
     ethr =  5.89E-09,  avg # of iterations =  2.0

     negative rho (up, down):  2.715E-03 2.715E-03

     total cpu time spent up to now is      653.0 secs

     total energy              =  -42139.68768980 Ry
     estimated scf accuracy    <       0.00002006 Ry

     total magnetization       =     0.04 Bohr mag/cell
     absolute magnetization    =   226.68 Bohr mag/cell

     iteration # 32     ecut=    71.00 Ry     beta= 0.30
     Davidson diagonalization with overlap
     ethr =  9.79E-10,  avg # of iterations = 15.5

     negative rho (up, down):  2.727E-03 2.727E-03

     total cpu time spent up to now is      682.4 secs

     total energy              =  -42139.68769607 Ry
     estimated scf accuracy    <       0.00001941 Ry

     total magnetization       =     0.03 Bohr mag/cell
     absolute magnetization    =   226.74 Bohr mag/cell

     iteration # 33     ecut=    71.00 Ry     beta= 0.30
     Davidson diagonalization with overlap
     ethr =  9.48E-10,  avg # of iterations =  1.0

     negative rho (up, down):  2.821E-03 2.821E-03

     total cpu time spent up to now is      699.5 secs

     total energy              =  -42139.68770412 Ry
     estimated scf accuracy    <       0.00000916 Ry

     total magnetization       =     0.03 Bohr mag/cell
     absolute magnetization    =   226.76 Bohr mag/cell

     iteration # 34     ecut=    71.00 Ry     beta= 0.30
     Davidson diagonalization with overlap
     ethr =  4.47E-10,  avg # of iterations =  4.0

     negative rho (up, down):  2.931E-03 2.931E-03

     total cpu time spent up to now is      720.0 secs

     total energy              =  -42139.68770982 Ry
     estimated scf accuracy    <       0.00000666 Ry

     total magnetization       =     0.03 Bohr mag/cell
     absolute magnetization    =   226.79 Bohr mag/cell

     iteration # 35     ecut=    71.00 Ry     beta= 0.30
     Davidson diagonalization with overlap
     ethr =  3.25E-10,  avg # of iterations =  4.0

     negative rho (up, down):  3.006E-03 3.005E-03

     total cpu time spent up to now is      741.2 secs

     total energy              =  -42139.68771498 Ry
     estimated scf accuracy    <       0.00000540 Ry

     total magnetization       =     0.03 Bohr mag/cell
     absolute magnetization    =   226.81 Bohr mag/cell

     iteration # 36     ecut=    71.00 Ry     beta= 0.30
     Davidson diagonalization with overlap
     ethr =  2.64E-10,  avg # of iterations =  4.0

     negative rho (up, down):  3.122E-03 3.121E-03

     total cpu time spent up to now is      762.1 secs

     total energy              =  -42139.68771675 Ry
     estimated scf accuracy    <       0.00000523 Ry

     total magnetization       =     0.03 Bohr mag/cell
     absolute magnetization    =   226.84 Bohr mag/cell

     iteration # 37     ecut=    71.00 Ry     beta= 0.30
     Davidson diagonalization with overlap
     ethr =  2.56E-10,  avg # of iterations =  5.5

     negative rho (up, down):  3.067E-03 3.067E-03

     total cpu time spent up to now is      789.4 secs

     total energy              =  -42139.68772423 Ry
     estimated scf accuracy    <       0.00000234 Ry

     total magnetization       =     0.02 Bohr mag/cell
     absolute magnetization    =   226.97 Bohr mag/cell

     iteration # 38     ecut=    71.00 Ry     beta= 0.30
     Davidson diagonalization with overlap
     ethr =  1.14E-10,  avg # of iterations =  4.0

     negative rho (up, down):  3.062E-03 3.061E-03

     total cpu time spent up to now is      811.0 secs

     total energy              =  -42139.68772499 Ry
     estimated scf accuracy    <       0.00000153 Ry

     total magnetization       =     0.01 Bohr mag/cell
     absolute magnetization    =   227.00 Bohr mag/cell

     iteration # 39     ecut=    71.00 Ry     beta= 0.30
     Davidson diagonalization with overlap
     ethr =  7.46E-11,  avg # of iterations =  5.0

     negative rho (up, down):  2.968E-03 2.967E-03

     total cpu time spent up to now is      833.8 secs

     total energy              =  -42139.68772539 Ry
     estimated scf accuracy    <       0.00000145 Ry

     total magnetization       =     0.01 Bohr mag/cell
     absolute magnetization    =   227.03 Bohr mag/cell

     iteration # 40     ecut=    71.00 Ry     beta= 0.30
     Davidson diagonalization with overlap
     ethr =  7.07E-11,  avg # of iterations =  5.5

     negative rho (up, down):  2.973E-03 2.973E-03

     total cpu time spent up to now is      861.1 secs

     total energy              =  -42139.68772769 Ry
     estimated scf accuracy    <       0.00000079 Ry

     total magnetization       =     0.01 Bohr mag/cell
     absolute magnetization    =   227.08 Bohr mag/cell

     iteration # 41     ecut=    71.00 Ry     beta= 0.30
     Davidson diagonalization with overlap
     ethr =  3.88E-11,  avg # of iterations =  4.5

     negative rho (up, down):  2.943E-03 2.943E-03

     total cpu time spent up to now is      885.1 secs

     total energy              =  -42139.68772866 Ry
     estimated scf accuracy    <       0.00000045 Ry

     total magnetization       =     0.01 Bohr mag/cell
     absolute magnetization    =   227.11 Bohr mag/cell

     iteration # 42     ecut=    71.00 Ry     beta= 0.30
     Davidson diagonalization with overlap
     ethr =  2.20E-11,  avg # of iterations =  5.0

     negative rho (up, down):  2.947E-03 2.947E-03

     total cpu time spent up to now is      911.6 secs

     total energy              =  -42139.68772915 Ry
     estimated scf accuracy    <       0.00000034 Ry

     total magnetization       =     0.00 Bohr mag/cell
     absolute magnetization    =   227.13 Bohr mag/cell

     iteration # 43     ecut=    71.00 Ry     beta= 0.30
     Davidson diagonalization with overlap
     ethr =  1.65E-11,  avg # of iterations =  4.5

     negative rho (up, down):  2.942E-03 2.942E-03

     total cpu time spent up to now is      936.4 secs

     total energy              =  -42139.68772944 Ry
     estimated scf accuracy    <       0.00000022 Ry

     total magnetization       =     0.00 Bohr mag/cell
     absolute magnetization    =   227.15 Bohr mag/cell

     iteration # 44     ecut=    71.00 Ry     beta= 0.30
     Davidson diagonalization with overlap
     ethr =  1.07E-11,  avg # of iterations =  5.0

     negative rho (up, down):  2.948E-03 2.948E-03

     total cpu time spent up to now is      963.9 secs

     total energy              =  -42139.68772983 Ry
     estimated scf accuracy    <       0.00000015 Ry

     total magnetization       =     0.00 Bohr mag/cell
     absolute magnetization    =   227.17 Bohr mag/cell

     iteration # 45     ecut=    71.00 Ry     beta= 0.30
     Davidson diagonalization with overlap
     ethr =  7.38E-12,  avg # of iterations =  4.5

     negative rho (up, down):  2.946E-03 2.946E-03

     total cpu time spent up to now is      988.5 secs

     total energy              =  -42139.68772998 Ry
     estimated scf accuracy    <       0.00000008 Ry

     total magnetization       =    -0.00 Bohr mag/cell
     absolute magnetization    =   227.18 Bohr mag/cell

     iteration # 46     ecut=    71.00 Ry     beta= 0.30
     Davidson diagonalization with overlap
     ethr =  4.09E-12,  avg # of iterations =  4.5

     negative rho (up, down):  2.945E-03 2.945E-03

     total cpu time spent up to now is     1013.0 secs

     total energy              =  -42139.68773005 Ry
     estimated scf accuracy    <       0.00000007 Ry

     total magnetization       =    -0.00 Bohr mag/cell
     absolute magnetization    =   227.18 Bohr mag/cell

     iteration # 47     ecut=    71.00 Ry     beta= 0.30
     Davidson diagonalization with overlap
     ethr =  3.27E-12,  avg # of iterations =  2.0

     negative rho (up, down):  2.951E-03 2.951E-03

     total cpu time spent up to now is     1033.3 secs

     total energy              =  -42139.68773010 Ry
     estimated scf accuracy    <       0.00000005 Ry

     total magnetization       =    -0.00 Bohr mag/cell
     absolute magnetization    =   227.18 Bohr mag/cell

     iteration # 48     ecut=    71.00 Ry     beta= 0.30
     Davidson diagonalization with overlap
     ethr =  2.67E-12,  avg # of iterations =  4.0

     negative rho (up, down):  2.952E-03 2.952E-03

     total cpu time spent up to now is     1055.2 secs

     total energy              =  -42139.68773013 Ry
     estimated scf accuracy    <       0.00000004 Ry

     total magnetization       =    -0.00 Bohr mag/cell
     absolute magnetization    =   227.18 Bohr mag/cell

     iteration # 49     ecut=    71.00 Ry     beta= 0.30
     Davidson diagonalization with overlap
     ethr =  2.12E-12,  avg # of iterations =  2.0

     negative rho (up, down):  2.956E-03 2.957E-03

     total cpu time spent up to now is     1075.1 secs

     total energy              =  -42139.68773017 Ry
     estimated scf accuracy    <       0.00000004 Ry

     total magnetization       =    -0.00 Bohr mag/cell
     absolute magnetization    =   227.18 Bohr mag/cell

     iteration # 50     ecut=    71.00 Ry     beta= 0.30
     Davidson diagonalization with overlap
     ethr =  2.03E-12,  avg # of iterations =  4.5

     negative rho (up, down):  2.962E-03 2.962E-03

     total cpu time spent up to now is     1097.4 secs

     total energy              =  -42139.68773021 Ry
     estimated scf accuracy    <       0.00000003 Ry

     total magnetization       =    -0.00 Bohr mag/cell
     absolute magnetization    =   227.18 Bohr mag/cell

     iteration # 51     ecut=    71.00 Ry     beta= 0.30
     Davidson diagonalization with overlap
     ethr =  1.69E-12,  avg # of iterations =  4.0

     negative rho (up, down):  2.976E-03 2.976E-03

     total cpu time spent up to now is     1118.4 secs

     total energy              =  -42139.68773027 Ry
     estimated scf accuracy    <       0.00000003 Ry

     total magnetization       =    -0.00 Bohr mag/cell
     absolute magnetization    =   227.18 Bohr mag/cell

     iteration # 52     ecut=    71.00 Ry     beta= 0.30
     Davidson diagonalization with overlap
     ethr =  1.49E-12,  avg # of iterations =  5.0

     negative rho (up, down):  2.987E-03 2.987E-03

     total cpu time spent up to now is     1143.4 secs

     total energy              =  -42139.68773029 Ry
     estimated scf accuracy    <       0.00000003 Ry

     total magnetization       =    -0.00 Bohr mag/cell
     absolute magnetization    =   227.18 Bohr mag/cell

     iteration # 53     ecut=    71.00 Ry     beta= 0.30
     Davidson diagonalization with overlap
     ethr =  1.28E-12,  avg # of iterations =  5.0

     negative rho (up, down):  2.993E-03 2.993E-03

     total cpu time spent up to now is     1168.2 secs

     total energy              =  -42139.68773031 Ry
     estimated scf accuracy    <       0.00000002 Ry

     total magnetization       =    -0.00 Bohr mag/cell
     absolute magnetization    =   227.18 Bohr mag/cell

     iteration # 54     ecut=    71.00 Ry     beta= 0.30
     Davidson diagonalization with overlap
     ethr =  1.10E-12,  avg # of iterations =  4.5

     negative rho (up, down):  2.996E-03 2.996E-03

     total cpu time spent up to now is     1190.2 secs

     total energy              =  -42139.68773031 Ry
     estimated scf accuracy    <       0.00000002 Ry

     total magnetization       =    -0.00 Bohr mag/cell
     absolute magnetization    =   227.18 Bohr mag/cell

     iteration # 55     ecut=    71.00 Ry     beta= 0.30
     Davidson diagonalization with overlap
     ethr =  9.47E-13,  avg # of iterations =  5.0

     negative rho (up, down):  2.999E-03 2.999E-03

     total cpu time spent up to now is     1220.6 secs

     total energy              =  -42139.68773035 Ry
     estimated scf accuracy    <       0.00000002 Ry

     total magnetization       =    -0.00 Bohr mag/cell
     absolute magnetization    =   227.18 Bohr mag/cell

     iteration # 56     ecut=    71.00 Ry     beta= 0.30
     Davidson diagonalization with overlap
     ethr =  8.99E-13,  avg # of iterations =  3.5

     negative rho (up, down):  3.003E-03 3.003E-03

     total cpu time spent up to now is     1242.1 secs

     total energy              =  -42139.68773029 Ry
     estimated scf accuracy    <       0.00000002 Ry

     total magnetization       =    -0.00 Bohr mag/cell
     absolute magnetization    =   227.18 Bohr mag/cell

     iteration # 57     ecut=    71.00 Ry     beta= 0.30
     Davidson diagonalization with overlap
     ethr =  8.23E-13,  avg # of iterations =  7.0

     negative rho (up, down):  3.000E-03 3.000E-03

     total cpu time spent up to now is     1277.2 secs

     total energy              =  -42139.68773037 Ry
     estimated scf accuracy    <       0.00000001 Ry

     total magnetization       =     0.00 Bohr mag/cell
     absolute magnetization    =   227.18 Bohr mag/cell

     iteration # 58     ecut=    71.00 Ry     beta= 0.30
     Davidson diagonalization with overlap
     ethr =  5.38E-13,  avg # of iterations =  6.0

     negative rho (up, down):  2.997E-03 2.997E-03

     total cpu time spent up to now is     1308.8 secs

     total energy              =  -42139.68773041 Ry
     estimated scf accuracy    <       0.00000001 Ry

     total magnetization       =     0.00 Bohr mag/cell
     absolute magnetization    =   227.18 Bohr mag/cell

     iteration # 59     ecut=    71.00 Ry     beta= 0.30
     Davidson diagonalization with overlap
     ethr =  4.92E-13,  avg # of iterations =  6.5

     negative rho (up, down):  2.972E-03 2.972E-03
 
     Magnetic moment per site:
     atom:    1    charge:   14.0618    magn:    2.3583    constr:    0.0000
     atom:    2    charge:   14.0618    magn:   -2.3583    constr:    0.0000
     atom:    3    charge:   14.2361    magn:    0.9462    constr:    0.0000
     atom:    4    charge:   14.2361    magn:   -0.9463    constr:    0.0000
     atom:    5    charge:   14.2361    magn:    0.9464    constr:    0.0000
     atom:    6    charge:   14.2361    magn:   -0.9464    constr:    0.0000
     atom:    7    charge:   14.0618    magn:    2.3583    constr:    0.0000
     atom:    8    charge:   14.0618    magn:   -2.3583    constr:    0.0000
     atom:    9    charge:   14.0618    magn:    2.3585    constr:    0.0000
     atom:   10    charge:   14.0618    magn:   -2.3583    constr:    0.0000
     atom:   11    charge:   14.2361    magn:    0.9446    constr:    0.0000
     atom:   12    charge:   14.2361    magn:   -0.9462    constr:    0.0000
     atom:   13    charge:   14.2361    magn:    0.9478    constr:    0.0000
     atom:   14    charge:   14.2361    magn:   -0.9466    constr:    0.0000
     atom:   15    charge:   14.0618    magn:    2.3582    constr:    0.0000
     atom:   16    charge:   14.0618    magn:   -2.3583    constr:    0.0000
     atom:   17    charge:   14.0618    magn:    2.3584    constr:    0.0000
     atom:   18    charge:   14.0618    magn:   -2.3583    constr:    0.0000
     atom:   19    charge:   14.2361    magn:    0.9456    constr:    0.0000
     atom:   20    charge:   14.2361    magn:   -0.9466    constr:    0.0000
     atom:   21    charge:   14.2361    magn:    0.9470    constr:    0.0000
     atom:   22    charge:   14.2361    magn:   -0.9462    constr:    0.0000
     atom:   23    charge:   14.0618    magn:    2.3582    constr:    0.0000
     atom:   24    charge:   14.0618    magn:   -2.3584    constr:    0.0000
     atom:   25    charge:   14.0618    magn:    2.3583    constr:    0.0000
     atom:   26    charge:   14.0618    magn:   -2.3583    constr:    0.0000
     atom:   27    charge:   14.2361    magn:    0.9465    constr:    0.0000
     atom:   28    charge:   14.2361    magn:   -0.9467    constr:    0.0000
     atom:   29    charge:   14.2361    magn:    0.9461    constr:    0.0000
     atom:   30    charge:   14.2361    magn:   -0.9460    constr:    0.0000
     atom:   31    charge:   14.0618    magn:    2.3583    constr:    0.0000
     atom:   32    charge:   14.0618    magn:   -2.3584    constr:    0.0000
     atom:   33    charge:   14.0618    magn:    2.3584    constr:    0.0000
     atom:   34    charge:   14.0618    magn:   -2.3583    constr:    0.0000
     atom:   35    charge:   14.2361    magn:    0.9458    constr:    0.0000
     atom:   36    charge:   14.2361    magn:   -0.9460    constr:    0.0000
     atom:   37    charge:   14.2361    magn:    0.9467    constr:    0.0000
     atom:   38    charge:   14.2361    magn:   -0.9468    constr:    0.0000
     atom:   39    charge:   14.0618    magn:    2.3582    constr:    0.0000
     atom:   40    charge:   14.0618    magn:   -2.3583    constr:    0.0000
     atom:   41    charge:   14.0618    magn:    2.3585    constr:    0.0000
     atom:   42    charge:   14.0618    magn:   -2.3583    constr:    0.0000
     atom:   43    charge:   14.2361    magn:    0.9442    constr:    0.0000
     atom:   44    charge:   14.2361    magn:   -0.9459    constr:    0.0000
     atom:   45    charge:   14.2361    magn:    0.9484    constr:    0.0000
     atom:   46    charge:   14.2361    magn:   -0.9469    constr:    0.0000
     atom:   47    charge:   14.0618    magn:    2.3581    constr:    0.0000
     atom:   48    charge:   14.0618    magn:   -2.3583    constr:    0.0000
     atom:   49    charge:   14.0618    magn:    2.3584    constr:    0.0000
     atom:   50    charge:   14.0618    magn:   -2.3583    constr:    0.0000
     atom:   51    charge:   14.2361    magn:    0.9454    constr:    0.0000
     atom:   52    charge:   14.2361    magn:   -0.9464    constr:    0.0000
     atom:   53    charge:   14.2361    magn:    0.9472    constr:    0.0000
     atom:   54    charge:   14.2361    magn:   -0.9464    constr:    0.0000
     atom:   55    charge:   14.0618    magn:    2.3582    constr:    0.0000
     atom:   56    charge:   14.0618    magn:   -2.3583    constr:    0.0000
     atom:   57    charge:   14.0618    magn:    2.3583    constr:    0.0000
     atom:   58    charge:   14.0618    magn:   -2.3583    constr:    0.0000
     atom:   59    charge:   14.2361    magn:    0.9464    constr:    0.0000
     atom:   60    charge:   14.2361    magn:   -0.9465    constr:    0.0000
     atom:   61    charge:   14.2361    magn:    0.9463    constr:    0.0000
     atom:   62    charge:   14.2361    magn:   -0.9462    constr:    0.0000
     atom:   63    charge:   14.0618    magn:    2.3583    constr:    0.0000
     atom:   64    charge:   14.0618    magn:   -2.3584    constr:    0.0000
     atom:   65    charge:   14.0618    magn:    2.3584    constr:    0.0000
     atom:   66    charge:   14.0618    magn:   -2.3583    constr:    0.0000
     atom:   67    charge:   14.2361    magn:    0.9458    constr:    0.0000
     atom:   68    charge:   14.2361    magn:   -0.9460    constr:    0.0000
     atom:   69    charge:   14.2361    magn:    0.9470    constr:    0.0000
     atom:   70    charge:   14.2361    magn:   -0.9466    constr:    0.0000
     atom:   71    charge:   14.0618    magn:    2.3582    constr:    0.0000
     atom:   72    charge:   14.0618    magn:   -2.3583    constr:    0.0000
     atom:   73    charge:   14.0618    magn:    2.3585    constr:    0.0000
     atom:   74    charge:   14.0618    magn:   -2.3583    constr:    0.0000
     atom:   75    charge:   14.2362    magn:    0.9443    constr:    0.0000
     atom:   76    charge:   14.2361    magn:   -0.9459    constr:    0.0000
     atom:   77    charge:   14.2361    magn:    0.9485    constr:    0.0000
     atom:   78    charge:   14.2361    magn:   -0.9467    constr:    0.0000
     atom:   79    charge:   14.0618    magn:    2.3581    constr:    0.0000
     atom:   80    charge:   14.0618    magn:   -2.3583    constr:    0.0000
     atom:   81    charge:   14.0618    magn:    2.3584    constr:    0.0000
     atom:   82    charge:   14.0618    magn:   -2.3583    constr:    0.0000
     atom:   83    charge:   14.2361    magn:    0.9455    constr:    0.0000
     atom:   84    charge:   14.2361    magn:   -0.9463    constr:    0.0000
     atom:   85    charge:   14.2361    magn:    0.9474    constr:    0.0000
     atom:   86    charge:   14.2361    magn:   -0.9462    constr:    0.0000
     atom:   87    charge:   14.0618    magn:    2.3582    constr:    0.0000
     atom:   88    charge:   14.0618    magn:   -2.3583    constr:    0.0000
     atom:   89    charge:   14.0618    magn:    2.3583    constr:    0.0000
     atom:   90    charge:   14.0618    magn:   -2.3583    constr:    0.0000
     atom:   91    charge:   14.2361    magn:    0.9465    constr:    0.0000
     atom:   92    charge:   14.2361    magn:   -0.9465    constr:    0.0000
     atom:   93    charge:   14.2361    magn:    0.9463    constr:    0.0000
     atom:   94    charge:   14.2361    magn:   -0.9461    constr:    0.0000
     atom:   95    charge:   14.0618    magn:    2.3583    constr:    0.0000
     atom:   96    charge:   14.0618    magn:   -2.3583    constr:    0.0000
     atom:   97    charge:   14.0618    magn:    2.3584    constr:    0.0000
     atom:   98    charge:   14.0618    magn:   -2.3583    constr:    0.0000
     atom:   99    charge:   14.2361    magn:    0.9461    constr:    0.0000
     atom:  100    charge:   14.2361    magn:   -0.9462    constr:    0.0000
     atom:  101    charge:   14.2361    magn:    0.9468    constr:    0.0000
     atom:  102    charge:   14.2361    magn:   -0.9463    constr:    0.0000
     atom:  103    charge:   14.0618    magn:    2.3583    constr:    0.0000
     atom:  104    charge:   14.0618    magn:   -2.3583    constr:    0.0000
     atom:  105    charge:   14.0618    magn:    2.3585    constr:    0.0000
     atom:  106    charge:   14.0618    magn:   -2.3583    constr:    0.0000
     atom:  107    charge:   14.2361    magn:    0.9448    constr:    0.0000
     atom:  108    charge:   14.2361    magn:   -0.9461    constr:    0.0000
     atom:  109    charge:   14.2361    magn:    0.9481    constr:    0.0000
     atom:  110    charge:   14.2361    magn:   -0.9464    constr:    0.0000
     atom:  111    charge:   14.0618    magn:    2.3582    constr:    0.0000
     atom:  112    charge:   14.0618    magn:   -2.3583    constr:    0.0000
     atom:  113    charge:   14.0618    magn:    2.3584    constr:    0.0000
     atom:  114    charge:   14.0618    magn:   -2.3583    constr:    0.0000
     atom:  115    charge:   14.2361    magn:    0.9458    constr:    0.0000
     atom:  116    charge:   14.2361    magn:   -0.9465    constr:    0.0000
     atom:  117    charge:   14.2361    magn:    0.9470    constr:    0.0000
     atom:  118    charge:   14.2361    magn:   -0.9461    constr:    0.0000
     atom:  119    charge:   14.0618    magn:    2.3582    constr:    0.0000
     atom:  120    charge:   14.0618    magn:   -2.3584    constr:    0.0000
     atom:  121    charge:   14.0618    magn:    2.3583    constr:    0.0000
     atom:  122    charge:   14.0618    magn:   -2.3583    constr:    0.0000
     atom:  123    charge:   14.2361    magn:    0.9466    constr:    0.0000
     atom:  124    charge:   14.2361    magn:   -0.9466    constr:    0.0000
     atom:  125    charge:   14.2361    magn:    0.9462    constr:    0.0000
     atom:  126    charge:   14.2361    magn:   -0.9460    constr:    0.0000
     atom:  127    charge:   14.0618    magn:    2.3583    constr:    0.0000
     atom:  128    charge:   14.0618    magn:   -2.3584    constr:    0.0000

     total cpu time spent up to now is     1340.8 secs

     End of self-consistent calculation

 ------ SPIN UP ------------


          k = 0.0000 0.0000 0.0000 ( 91909 PWs)   bands (ev):

   -80.4956 -80.4954 -80.4953 -80.4953 -80.4951 -80.4951 -80.4951 -80.4951
   -80.4950 -80.4948 -80.4948 -80.4948 -80.4948 -80.4948 -80.4948 -80.4947
   -80.4946 -80.4946 -80.4946 -80.4946 -80.4946 -80.4946 -80.4945 -80.4944
   -80.4944 -80.4943 -80.4943 -80.4942 -80.4942 -80.4941 -80.4941 -80.4939
   -79.6787 -79.6773 -79.6773 -79.6759 -79.6687 -79.6687 -79.6677 -79.6677
   -79.6677 -79.6677 -79.6668 -79.6668 -79.6461 -79.6453 -79.6450 -79.6449
   -79.6445 -79.6444 -79.6441 -79.6432 -79.6220 -79.6220 -79.6218 -79.6218
   -79.6218 -79.6218 -79.6217 -79.6217 -79.6126 -79.6124 -79.6124 -79.6123
   -78.5861 -78.5846 -78.5846 -78.5831 -78.5761 -78.5761 -78.5750 -78.5750
   -78.5750 -78.5750 -78.5739 -78.5739 -78.5524 -78.5524 -78.5521 -78.5521
   -78.5521 -78.5520 -78.5518 -78.5517 -78.5297 -78.5297 -78.5297 -78.5297
   -78.5296 -78.5296 -78.5296 -78.5296 -78.5205 -78.5205 -78.5205 -78.5205
   -77.7836 -77.7836 -77.7836 -77.7836 -77.7835 -77.7835 -77.7835 -77.7835
   -77.7835 -77.7835 -77.7835 -77.7835 -77.7834 -77.7834 -77.7834 -77.7834
   -77.7833 -77.7833 -77.7833 -77.7833 -77.7833 -77.7833 -77.7832 -77.7832
   -77.7832 -77.7832 -77.7832 -77.7832 -77.7831 -77.7831 -77.7829 -77.7829
   -46.6456 -46.6454 -46.6447 -46.6447 -46.6444 -46.6444 -46.6441 -46.6441
   -46.6436 -46.6436 -46.6436 -46.6436 -46.6432 -46.6430 -46.6425 -46.6425
   -46.6413 -46.6413 -46.6409 -46.6408 -46.6408 -46.6408 -46.6408 -46.6406
   -46.6406 -46.6405 -46.6404 -46.6403 -46.6402 -46.6402 -46.6400 -46.6394
   -46.5589 -46.5587 -46.5555 -46.5555 -46.5553 -46.5553 -46.5542 -46.5537
   -46.5532 -46.5532 -46.5532 -46.5532 -46.5532 -46.5532 -46.5530 -46.5530
   -46.5530 -46.5530 -46.5530 -46.5530 -46.5530 -46.5530 -46.5528 -46.5528
   -46.5519 -46.5517 -46.5509 -46.5509 -46.5505 -46.5505 -46.5476 -46.5474
   -46.4730 -46.4728 -46.4688 -46.4687 -46.4685 -46.4685 -46.4656 -46.4656
   -46.4646 -46.4644 -46.4644 -46.4644 -46.4643 -46.4643 -46.4634 -46.4634
   -46.4630 -46.4630 -46.4619 -46.4619 -46.4619 -46.4619 -46.4618 -46.4613
   -46.4613 -46.4595 -46.4594 -46.4590 -46.4569 -46.4567 -46.4567 -46.4542
   -45.8795 -45.8795 -45.8788 -45.8771 -45.8771 -45.8771 -45.8771 -45.8748
   -45.8747 -45.8729 -45.8726 -45.8720 -45.8720 -45.8648 -45.8626 -45.8626
   -45.8624 -45.8623 -45.8521 -45.8518 -45.8224 -45.8224 -45.8174 -45.8174
   -45.8174 -45.8174 -45.8106 -45.8106 -45.7862 -45.7853 -45.7853 -45.7827
   -45.7565 -45.7410 -45.7410 -45.7360 -45.7360 -45.7321 -45.7321 -45.7321
   -45.7321 -45.7296 -45.7296 -45.7262 -45.7242 -45.7231 -45.7101 -45.7099
   -45.7090 -45.7087 -45.6957 -45.6945 -45.6942 -45.6942 -45.6811 -45.6811
   -45.6811 -45.6810 -45.6733 -45.6681 -45.6681 -45.6674 -45.6674 -45.6612
   -45.6482 -45.6447 -45.6446 -45.6411 -45.6192 -45.6192 -45.6168 -45.6168
   -45.6168 -45.6168 -45.6154 -45.6154 -45.5968 -45.5920 -45.5920 -45.5874
   -45.5851 -45.5848 -45.5837 -45.5837 -45.5834 -45.5834 -45.5826 -45.5825
   -45.5824 -45.5821 -45.5820 -45.5820 -45.5820 -45.5820 -45.5815 -45.5815
   -44.7737 -44.7737 -44.7571 -44.7571 -44.7567 -44.7567 -44.7566 -44.7566
   -44.7495 -44.7495 -44.7495 -44.7495 -44.7478 -44.7476 -44.7475 -44.7424
   -44.7424 -44.7424 -44.7424 -44.7421 -44.7421 -44.7398 -44.7398 -44.7398
   -44.7398 -44.7350 -44.7350 -44.7315 -44.7281 -44.7281 -44.7279 -44.7272
   -44.6957 -44.6785 -44.6785 -44.6741 -44.6741 -44.6687 -44.6687 -44.6687
   -44.6687 -44.6657 -44.6657 -44.6602 -44.6602 -44.6582 -44.6582 -44.6582
   -44.6582 -44.6559 -44.6559 -44.6540 -44.6513 -44.6512 -44.6481 -44.6481
   -44.6481 -44.6481 -44.6471 -44.6440 -44.6440 -44.6409 -44.6409 -44.6405
   -44.5438 -44.5387 -44.5387 -44.5334 -44.5265 -44.5265 -44.5264 -44.5264
   -44.5264 -44.5264 -44.5262 -44.5262 -44.5156 -44.5116 -44.5116 -44.5094
   -44.5094 -44.5092 -44.5092 -44.5092 -44.5092 -44.5092 -44.5092 -44.5076
   -44.5076 -44.5074 -44.5068 -44.5068 -44.5068 -44.5068 -44.5068 -44.5068
   -43.9476 -43.9475 -43.9449 -43.9448 -43.9436 -43.9436 -43.9434 -43.9434
   -43.9431 -43.9431 -43.9431 -43.9431 -43.9428 -43.9428 -43.9428 -43.9428
   -43.9426 -43.9426 -43.9426 -43.9426 -43.9420 -43.9420 -43.9419 -43.9419
   -43.9418 -43.9418 -43.9415 -43.9415 -43.9392 -43.9392 -43.9386 -43.9383
   -43.8838 -43.8838 -43.8829 -43.8817 -43.8817 -43.8809 -43.8809 -43.8809
   -43.8809 -43.8805 -43.8805 -43.8805 -43.8805 -43.8802 -43.8802 -43.8802
   -43.8802 -43.8800 -43.8787 -43.8787 -43.8780 -43.8780 -43.8780 -43.8780
   -43.8778 -43.8777 -43.8777 -43.8776 -43.8776 -43.8767 -43.8767 -43.8750
   -43.8270 -43.8257 -43.8257 -43.8244 -43.8235 -43.8235 -43.8234 -43.8234
   -43.8234 -43.8234 -43.8233 -43.8233 -43.8229 -43.8229 -43.8229 -43.8227
   -43.8217 -43.8217 -43.8209 -43.8209 -43.8209 -43.8209 -43.8203 -43.8203
   -43.8203 -43.8203 -43.8201 -43.8201 -43.8201 -43.8201 -43.8200 -43.8200
    -0.4717   0.3007   0.3007   0.3798   0.3798   1.0629   1.0629   1.0629
     1.0629   1.3443   2.0247   2.0248   2.0961   2.0961   2.1169   2.2863
     2.4176   2.4178   2.5325   2.5325   2.5325   2.5325   2.6496   2.6496
     2.7098   2.7098   2.7884   2.7884   2.7885   2.7885   2.8322   2.9471
     3.0658   3.0659   3.2066   3.2066   3.2260   3.2260   3.2369   3.2600
     3.2600   3.2770   3.2770   3.2878   3.2879   3.4148   3.4148   3.4149
     3.4149   3.4437   3.4797   3.4797   3.4948   3.5422   3.5422   3.5447
     3.5447   3.5528   3.5645   3.5645   3.5645   3.5645   3.7021   3.7021
     3.7021   3.7021   3.7062   3.7208   3.7208   3.7345   3.7346   3.7707
     3.7900   3.7900   3.7900   3.7900   3.8028   3.8028   3.8814   3.8870
     3.8870   3.9395   3.9395   3.9634   3.9844   3.9844   4.0254   4.0254
     4.0255   4.0255   4.0512   4.0512   4.0583   4.0742   4.1030   4.1031
     4.1031   4.1031   4.1122   4.1122   4.1211   4.1211   4.1211   4.1211
     4.1262   4.1262   4.1484   4.1484   4.1715   4.1715   4.1715   4.1715
     4.1738   4.1738   4.1906   4.1906   4.2232   4.2232   4.2249   4.2249
     4.2654   4.2657   4.2958   4.2959   4.3078   4.3078   4.3173   4.3268
     4.3268   4.3440   4.3440   4.3440   4.3440   4.3796   4.3796   4.4712
     4.4712   4.4712   4.4712   4.4786   4.4786   4.5195   4.5278   4.5278
     4.5891   4.5893   4.6237   4.6386   4.6386   4.6567   4.6568   4.6569
     4.6570   4.6599   4.6599   4.6675   4.6675   4.6767   4.6767   4.6767
     4.6767   4.7069   4.7069   4.7142   4.7142   4.7257   4.7257   4.7257
     4.7257   4.7436   4.7436   4.7902   4.7902   4.7946   4.7946   4.7946
     4.7946   4.8207   4.8208   4.8433   4.8465   4.8465   4.8465   4.8465
     4.8479   4.8479   4.8575   4.8620   4.8841   4.8843   4.9375   4.9375
     5.0082   5.0083   5.0211   5.0259   5.0373   5.0373   5.0373   5.0373
     5.0449   5.0450   5.0608   5.0632   5.0634   5.1990   5.1991   5.1993
     5.1994   5.2108   5.2118   5.2258   5.2258   5.2461   5.2461   5.2530
     5.2530   5.3045   5.3067   5.3067   5.3217   5.3217   5.3408   5.3409
     5.3409   5.3410   5.3461   5.3461   5.3619   5.3619   5.3621   5.3621
     5.3724   5.3760   5.3830   5.3830   5.4056   5.4056   5.4122   5.4156
     5.4156   5.4156   5.4156   5.4382   5.4383   5.4414   5.4414   5.4414
     5.4414   5.4545   5.4545   5.4648   5.4648   5.4717   5.4717   5.5676
     5.5676   5.6100   5.6100   5.6100   5.6100   5.6161   5.6161   5.6209
     5.6211   5.6517   5.6674   5.6674   5.6865   5.7475   5.7475   5.7497
     5.7497   5.7500   5.7500   5.7969   5.7970   5.8216   5.8222   5.8461
     5.8461   5.9408   5.9548   5.9648   5.9648   5.9673   5.9755   5.9755
     5.9755   5.9755   5.9822   5.9822   6.0052   6.0052   6.0093   6.0093
     6.0174   6.0174   6.0176   6.0177   6.0198   6.0198   6.0241   6.0759
     6.0759   6.1120   6.1370   6.1370   6.1370   6.1370   6.1449   6.1449
     6.1665   6.2423   6.2423   6.2478   6.2478   6.2753   6.2758   6.2918
     6.2918   6.3084   6.3157   6.3157   6.3407   6.3443   6.3443   6.3503
     6.3503   6.3667   6.3970   6.3970   6.4080   6.4080   6.4082   6.4082
     6.4127   6.4128   6.4157   6.4158   6.4277   6.4277   6.4277   6.4277
     6.4303   6.4303   6.4334   6.4344   6.4344   6.4344   6.4344   6.4421
     6.4680   6.4680   6.4680   6.4680   6.4962   6.4962   6.5004   6.5004
     6.5004   6.5004   6.5177   6.5177   6.5234   6.5235   6.5265   6.5266
     6.5397   6.5602   6.5602   6.5602   6.5602   6.5723   6.5723   6.5881
     6.5881   6.6691   6.6691   6.6691   6.6691   6.6765   6.6766   6.7127
     6.7127   6.7297   6.7297   6.7639   6.7639   6.7639   6.7639   6.7714
     6.7719   6.7778   6.7778   6.7904   6.7916   6.7917   6.7917   6.7917
     6.7963   6.7963   6.7963   6.7963   6.8337   6.8337   6.8782   6.9012
     6.9012   6.9012   6.9012   6.9591   6.9591   6.9789   6.9887   6.9887
     6.9887   6.9887   7.0829   7.0829   7.0857   7.0857   7.0919   7.0919
     7.1149   7.1149   7.1230   7.1415   7.1415   7.1415   7.1415   7.1914
     7.1914   7.2166   7.2166   7.2520   7.2667   7.2667   7.2716   7.2716
     7.3058   7.3058   7.3711   7.3711   7.3860   7.3860   7.3860   7.3860
     7.3869   7.3870   7.3871   7.3871   7.3884   7.4111   7.4137   7.4137
     7.4708   7.4984   7.5158   7.5158   7.5159   7.5159   7.5851   7.5851
     7.5851   7.5851   7.6108   7.6343   7.6344   7.6440   7.6476   7.6477
     7.6568   7.6667   7.6667   7.6831   7.6831   7.6879   7.6879   7.7140
     7.7142   7.7188   7.7188   7.7582   7.7582   7.7582   7.7582   7.7610
     7.7610   7.7927   7.7927   7.7927   7.7927   7.8120   7.8320   7.8320
     7.8322   7.8323   7.9028   7.9028   7.9189   7.9189   7.9189   7.9189
     7.9403   7.9519   7.9519   7.9556   7.9556   8.0210   8.0210   8.0512
     8.0514   8.0714   8.0714   8.0731   8.0731   8.0731   8.0731   8.1085
     8.1179   8.1179   8.1179   8.1179   8.1448   8.2361   8.2393   8.2395
     8.2400   8.2400   8.2659   8.2702   8.2716   8.2716   8.2748   8.2748
     8.2924   8.3384   8.3384   8.3580   8.3704   8.3704   8.3720   8.3720
     8.3795   8.3795   8.4857   8.4857   8.4978   8.5163   8.5163   8.5211
     8.5211   8.5587   8.5725   8.5725   8.5731   8.5860   8.6000   8.6000
     8.6001   8.6001   8.6056   8.6056   8.6129   8.6129   8.6129   8.6129
     8.6130   8.6130   8.6134   8.6134   8.6134   8.6134   8.6226   8.6226
     8.6710   8.6710   8.6807   8.6807   8.7018   8.7018   8.7019   8.7019
     8.7134   8.7135   8.7174   8.7267   8.7267   8.7267   8.7267   8.7353
     8.7353   8.7379   8.7464   8.7464   8.7633   8.7633   8.7721   8.7909
     8.7909   8.7924   8.7924   8.8136   8.8136   8.8159   8.8159   8.8234
     8.8234   8.8568   8.8568   8.8577   8.8577   8.8694   8.8694   8.8694
     8.8694   8.8794   8.8874   8.9220   8.9220   8.9221   8.9221   8.9409
     8.9409   8.9582   8.9582   8.9683   8.9683   8.9684   8.9684   8.9857
     8.9857   9.0002   9.0002   9.0170   9.0211   9.0211   9.0437   9.0449
     9.0449   9.0449   9.0449   9.0523   9.0525   9.0609   9.0609   9.1004
     9.1004   9.1004   9.1004   9.1028   9.1029   9.1093   9.1093   9.1093
     9.1094   9.1106   9.1106   9.1106   9.1106   9.1122   9.1528   9.1738
     9.1738   9.1763   9.1763   9.2181   9.2181   9.2181   9.2181   9.2324
     9.2325   9.2644   9.2644   9.2919   9.2919   9.2920   9.2920   9.2946
     9.2946   9.3002   9.3124   9.3124   9.3127   9.3257   9.3673   9.4277
     9.4277   9.4309   9.4410   9.4410   9.4572   9.5010   9.5010   9.5095
     9.5484   9.5485   9.7695   9.7695  10.1082  10.1082  10.2463  10.2524
    10.2524  10.3613  10.3615  10.3717  10.3717  10.3978  10.3980  10.5090
    10.5090  10.5130  10.5250  10.5958  10.5958

 ------ SPIN DOWN ----------


          k = 0.0000 0.0000 0.0000 ( 91909 PWs)   bands (ev):

   -80.4955 -80.4954 -80.4952 -80.4952 -80.4952 -80.4952 -80.4949 -80.4949
   -80.4949 -80.4949 -80.4949 -80.4949 -80.4947 -80.4947 -80.4947 -80.4947
   -80.4947 -80.4947 -80.4947 -80.4947 -80.4946 -80.4946 -80.4945 -80.4945
   -80.4944 -80.4943 -80.4942 -80.4942 -80.4942 -80.4942 -80.4941 -80.4941
   -79.6787 -79.6773 -79.6773 -79.6759 -79.6687 -79.6687 -79.6677 -79.6677
   -79.6677 -79.6677 -79.6667 -79.6667 -79.6451 -79.6451 -79.6447 -79.6447
   -79.6446 -79.6446 -79.6443 -79.6442 -79.6220 -79.6220 -79.6218 -79.6218
   -79.6218 -79.6218 -79.6217 -79.6217 -79.6126 -79.6124 -79.6124 -79.6123
   -78.5861 -78.5846 -78.5846 -78.5831 -78.5761 -78.5761 -78.5750 -78.5750
   -78.5750 -78.5750 -78.5739 -78.5739 -78.5531 -78.5525 -78.5523 -78.5523
   -78.5519 -78.5518 -78.5517 -78.5510 -78.5297 -78.5297 -78.5297 -78.5297
   -78.5296 -78.5296 -78.5296 -78.5296 -78.5205 -78.5205 -78.5205 -78.5205
   -77.7837 -77.7836 -77.7836 -77.7836 -77.7835 -77.7835 -77.7835 -77.7835
   -77.7835 -77.7835 -77.7835 -77.7835 -77.7834 -77.7834 -77.7834 -77.7834
   -77.7833 -77.7833 -77.7833 -77.7833 -77.7833 -77.7833 -77.7832 -77.7832
   -77.7832 -77.7832 -77.7832 -77.7832 -77.7831 -77.7831 -77.7829 -77.7829
   -46.6455 -46.6455 -46.6447 -46.6447 -46.6443 -46.6443 -46.6442 -46.6442
   -46.6436 -46.6436 -46.6436 -46.6436 -46.6432 -46.6431 -46.6425 -46.6425
   -46.6413 -46.6413 -46.6409 -46.6409 -46.6408 -46.6408 -46.6408 -46.6406
   -46.6406 -46.6404 -46.6403 -46.6403 -46.6402 -46.6402 -46.6401 -46.6394
   -46.5589 -46.5588 -46.5555 -46.5555 -46.5554 -46.5554 -46.5541 -46.5538
   -46.5532 -46.5532 -46.5532 -46.5532 -46.5531 -46.5531 -46.5531 -46.5531
   -46.5530 -46.5530 -46.5530 -46.5530 -46.5530 -46.5530 -46.5529 -46.5529
   -46.5519 -46.5518 -46.5509 -46.5509 -46.5506 -46.5506 -46.5476 -46.5475
   -46.4729 -46.4729 -46.4687 -46.4686 -46.4686 -46.4686 -46.4656 -46.4656
   -46.4645 -46.4645 -46.4643 -46.4643 -46.4643 -46.4643 -46.4634 -46.4634
   -46.4630 -46.4630 -46.4620 -46.4620 -46.4620 -46.4620 -46.4618 -46.4613
   -46.4613 -46.4595 -46.4594 -46.4590 -46.4568 -46.4567 -46.4567 -46.4542
   -45.8794 -45.8794 -45.8788 -45.8771 -45.8771 -45.8771 -45.8771 -45.8747
   -45.8747 -45.8727 -45.8727 -45.8720 -45.8720 -45.8648 -45.8625 -45.8625
   -45.8625 -45.8625 -45.8520 -45.8520 -45.8224 -45.8224 -45.8174 -45.8174
   -45.8174 -45.8174 -45.8105 -45.8105 -45.7862 -45.7853 -45.7853 -45.7827
   -45.7565 -45.7410 -45.7410 -45.7359 -45.7359 -45.7321 -45.7321 -45.7321
   -45.7321 -45.7296 -45.7296 -45.7262 -45.7236 -45.7236 -45.7094 -45.7094
   -45.7094 -45.7094 -45.6951 -45.6951 -45.6942 -45.6942 -45.6811 -45.6811
   -45.6811 -45.6811 -45.6733 -45.6681 -45.6681 -45.6674 -45.6674 -45.6612
   -45.6482 -45.6446 -45.6446 -45.6411 -45.6192 -45.6192 -45.6168 -45.6168
   -45.6168 -45.6168 -45.6154 -45.6154 -45.5968 -45.5920 -45.5920 -45.5874
   -45.5850 -45.5849 -45.5836 -45.5836 -45.5835 -45.5835 -45.5825 -45.5825
   -45.5823 -45.5822 -45.5820 -45.5820 -45.5820 -45.5820 -45.5815 -45.5815
   -44.7737 -44.7737 -44.7571 -44.7571 -44.7567 -44.7567 -44.7566 -44.7566
   -44.7495 -44.7495 -44.7495 -44.7495 -44.7478 -44.7475 -44.7475 -44.7424
   -44.7424 -44.7424 -44.7424 -44.7421 -44.7420 -44.7398 -44.7398 -44.7398
   -44.7398 -44.7350 -44.7350 -44.7315 -44.7281 -44.7281 -44.7279 -44.7272
   -44.6957 -44.6785 -44.6785 -44.6741 -44.6740 -44.6687 -44.6687 -44.6687
   -44.6687 -44.6661 -44.6653 -44.6603 -44.6602 -44.6586 -44.6585 -44.6579
   -44.6577 -44.6559 -44.6559 -44.6541 -44.6516 -44.6509 -44.6481 -44.6481
   -44.6481 -44.6481 -44.6471 -44.6439 -44.6439 -44.6409 -44.6409 -44.6404
   -44.5438 -44.5387 -44.5387 -44.5334 -44.5265 -44.5265 -44.5264 -44.5264
   -44.5264 -44.5264 -44.5262 -44.5262 -44.5156 -44.5115 -44.5115 -44.5094
   -44.5094 -44.5092 -44.5092 -44.5092 -44.5092 -44.5092 -44.5092 -44.5076
   -44.5076 -44.5074 -44.5068 -44.5068 -44.5068 -44.5067 -44.5067 -44.5067
   -43.9476 -43.9475 -43.9449 -43.9449 -43.9436 -43.9436 -43.9434 -43.9434
   -43.9431 -43.9431 -43.9431 -43.9431 -43.9428 -43.9428 -43.9428 -43.9428
   -43.9426 -43.9426 -43.9426 -43.9426 -43.9419 -43.9419 -43.9419 -43.9419
   -43.9418 -43.9418 -43.9415 -43.9415 -43.9392 -43.9392 -43.9386 -43.9383
   -43.8838 -43.8838 -43.8829 -43.8817 -43.8817 -43.8809 -43.8809 -43.8809
   -43.8809 -43.8805 -43.8805 -43.8805 -43.8805 -43.8802 -43.8802 -43.8801
   -43.8801 -43.8800 -43.8787 -43.8787 -43.8780 -43.8780 -43.8780 -43.8780
   -43.8779 -43.8777 -43.8777 -43.8776 -43.8776 -43.8767 -43.8766 -43.8750
   -43.8270 -43.8257 -43.8257 -43.8244 -43.8235 -43.8235 -43.8234 -43.8234
   -43.8234 -43.8234 -43.8233 -43.8233 -43.8229 -43.8229 -43.8229 -43.8227
   -43.8217 -43.8217 -43.8209 -43.8209 -43.8209 -43.8209 -43.8203 -43.8203
   -43.8203 -43.8203 -43.8202 -43.8202 -43.8201 -43.8201 -43.8201 -43.8200
    -0.4717   0.3007   0.3007   0.3798   0.3798   1.0629   1.0629   1.0629
     1.0629   1.3443   2.0248   2.0248   2.0961   2.0961   2.1169   2.2863
     2.4176   2.4178   2.5325   2.5325   2.5325   2.5325   2.6496   2.6496
     2.7098   2.7098   2.7884   2.7884   2.7885   2.7885   2.8322   2.9471
     3.0658   3.0659   3.2066   3.2066   3.2260   3.2260   3.2369   3.2600
     3.2600   3.2771   3.2771   3.2878   3.2878   3.4148   3.4148   3.4149
     3.4149   3.4437   3.4798   3.4798   3.4948   3.5422   3.5422   3.5447
     3.5447   3.5528   3.5645   3.5645   3.5645   3.5645   3.7021   3.7021
     3.7021   3.7021   3.7062   3.7208   3.7208   3.7345   3.7346   3.7707
     3.7900   3.7900   3.7900   3.7900   3.8028   3.8028   3.8814   3.8870
     3.8870   3.9395   3.9395   3.9634   3.9844   3.9844   4.0255   4.0255
     4.0255   4.0255   4.0512   4.0512   4.0583   4.0742   4.1031   4.1031
     4.1031   4.1031   4.1122   4.1122   4.1211   4.1211   4.1211   4.1211
     4.1262   4.1262   4.1484   4.1484   4.1715   4.1715   4.1715   4.1715
     4.1738   4.1738   4.1906   4.1906   4.2232   4.2232   4.2249   4.2249
     4.2655   4.2656   4.2958   4.2958   4.3078   4.3078   4.3173   4.3268
     4.3268   4.3440   4.3440   4.3440   4.3440   4.3796   4.3796   4.4712
     4.4712   4.4712   4.4712   4.4786   4.4786   4.5195   4.5278   4.5278
     4.5891   4.5893   4.6237   4.6386   4.6386   4.6568   4.6568   4.6569
     4.6569   4.6599   4.6599   4.6675   4.6675   4.6767   4.6767   4.6767
     4.6767   4.7069   4.7069   4.7142   4.7142   4.7257   4.7257   4.7257
     4.7257   4.7436   4.7436   4.7902   4.7902   4.7946   4.7946   4.7946
     4.7946   4.8207   4.8208   4.8433   4.8465   4.8465   4.8465   4.8465
     4.8479   4.8479   4.8575   4.8620   4.8841   4.8842   4.9375   4.9375
     5.0082   5.0083   5.0211   5.0259   5.0373   5.0373   5.0373   5.0373
     5.0449   5.0450   5.0608   5.0633   5.0633   5.1992   5.1992   5.1992
     5.1992   5.2108   5.2118   5.2258   5.2258   5.2461   5.2461   5.2530
     5.2530   5.3045   5.3067   5.3067   5.3217   5.3217   5.3409   5.3409
     5.3409   5.3409   5.3461   5.3461   5.3620   5.3620   5.3620   5.3620
     5.3724   5.3760   5.3830   5.3830   5.4056   5.4056   5.4122   5.4156
     5.4156   5.4156   5.4156   5.4382   5.4383   5.4414   5.4414   5.4414
     5.4414   5.4545   5.4545   5.4648   5.4648   5.4717   5.4717   5.5676
     5.5676   5.6100   5.6100   5.6100   5.6100   5.6161   5.6161   5.6210
     5.6210   5.6517   5.6674   5.6674   5.6865   5.7475   5.7475   5.7498
     5.7498   5.7498   5.7498   5.7969   5.7970   5.8219   5.8219   5.8461
     5.8461   5.9408   5.9548   5.9648   5.9648   5.9673   5.9755   5.9755
     5.9755   5.9755   5.9822   5.9822   6.0052   6.0052   6.0093   6.0093
     6.0175   6.0175   6.0176   6.0176   6.0198   6.0198   6.0241   6.0757
     6.0761   6.1120   6.1370   6.1370   6.1370   6.1370   6.1449   6.1449
     6.1665   6.2423   6.2423   6.2478   6.2478   6.2756   6.2756   6.2918
     6.2918   6.3084   6.3157   6.3158   6.3407   6.3443   6.3443   6.3503
     6.3503   6.3667   6.3970   6.3970   6.4081   6.4081   6.4081   6.4082
     6.4128   6.4128   6.4157   6.4158   6.4277   6.4277   6.4277   6.4277
     6.4303   6.4303   6.4334   6.4344   6.4344   6.4344   6.4344   6.4421
     6.4680   6.4680   6.4680   6.4680   6.4962   6.4962   6.5004   6.5004
     6.5004   6.5004   6.5177   6.5177   6.5234   6.5236   6.5265   6.5266
     6.5397   6.5603   6.5603   6.5603   6.5603   6.5723   6.5723   6.5881
     6.5881   6.6691   6.6691   6.6691   6.6691   6.6766   6.6766   6.7127
     6.7127   6.7297   6.7297   6.7639   6.7639   6.7639   6.7639   6.7716
     6.7717   6.7778   6.7778   6.7904   6.7916   6.7916   6.7917   6.7917
     6.7963   6.7963   6.7963   6.7963   6.8337   6.8337   6.8782   6.9012
     6.9012   6.9012   6.9012   6.9591   6.9591   6.9789   6.9887   6.9887
     6.9887   6.9887   7.0829   7.0829   7.0857   7.0857   7.0919   7.0919
     7.1149   7.1149   7.1230   7.1415   7.1415   7.1415   7.1415   7.1914
     7.1914   7.2166   7.2166   7.2520   7.2667   7.2667   7.2716   7.2716
     7.3058   7.3058   7.3711   7.3711   7.3860   7.3860   7.3860   7.3860
     7.3869   7.3870   7.3871   7.3871   7.3884   7.4111   7.4137   7.4137
     7.4709   7.4984   7.5158   7.5158   7.5159   7.5159   7.5851   7.5851
     7.5851   7.5851   7.6108   7.6344   7.6344   7.6440   7.6476   7.6477
     7.6568   7.6667   7.6667   7.6831   7.6831   7.6879   7.6879   7.7140
     7.7142   7.7188   7.7188   7.7582   7.7582   7.7582   7.7582   7.7610
     7.7610   7.7927   7.7927   7.7927   7.7928   7.8121   7.8320   7.8320
     7.8322   7.8323   7.9028   7.9028   7.9189   7.9189   7.9189   7.9189
     7.9403   7.9519   7.9519   7.9556   7.9556   8.0210   8.0210   8.0511
     8.0515   8.0714   8.0714   8.0731   8.0731   8.0731   8.0731   8.1085
     8.1178   8.1178   8.1180   8.1180   8.1448   8.2361   8.2394   8.2394
     8.2398   8.2402   8.2659   8.2702   8.2716   8.2716   8.2748   8.2748
     8.2924   8.3384   8.3384   8.3580   8.3704   8.3704   8.3721   8.3721
     8.3795   8.3795   8.4857   8.4857   8.4978   8.5164   8.5164   8.5211
     8.5211   8.5587   8.5725   8.5725   8.5731   8.5860   8.6000   8.6000
     8.6001   8.6001   8.6056   8.6057   8.6129   8.6129   8.6129   8.6129
     8.6130   8.6131   8.6134   8.6134   8.6134   8.6134   8.6226   8.6226
     8.6710   8.6710   8.6807   8.6807   8.7018   8.7018   8.7019   8.7019
     8.7135   8.7135   8.7174   8.7267   8.7267   8.7267   8.7267   8.7353
     8.7353   8.7379   8.7464   8.7464   8.7633   8.7633   8.7721   8.7909
     8.7909   8.7924   8.7924   8.8136   8.8136   8.8159   8.8159   8.8234
     8.8234   8.8568   8.8568   8.8577   8.8577   8.8694   8.8694   8.8694
     8.8694   8.8794   8.8874   8.9220   8.9220   8.9221   8.9221   8.9409
     8.9409   8.9582   8.9582   8.9684   8.9684   8.9684   8.9684   8.9857
     8.9857   9.0002   9.0002   9.0170   9.0211   9.0211   9.0437   9.0449
     9.0449   9.0449   9.0449   9.0523   9.0525   9.0610   9.0610   9.1004
     9.1004   9.1004   9.1004   9.1028   9.1029   9.1093   9.1093   9.1094
     9.1094   9.1106   9.1106   9.1106   9.1106   9.1122   9.1528   9.1738
     9.1738   9.1763   9.1763   9.2181   9.2181   9.2181   9.2181   9.2324
     9.2325   9.2644   9.2644   9.2920   9.2920   9.2920   9.2920   9.2946
     9.2946   9.3002   9.3124   9.3124   9.3127   9.3257   9.3673   9.4277
     9.4277   9.4309   9.4410   9.4410   9.4572   9.5010   9.5010   9.5095
     9.5484   9.5485   9.7695   9.7695  10.1082  10.1082  10.2463  10.2524
    10.2524  10.3613  10.3615  10.3717  10.3717  10.3978  10.3980  10.5090
    10.5090  10.5130  10.5250  10.5958  10.5959

     the Fermi energy is     8.0412 ev

!    total energy              =  -42139.68773047 Ry

     total all-electron energy =   -325825.643962 Ry
     estimated scf accuracy    <          7.0E-09 Ry
     smearing contrib. (-TS)   =      -0.05054691 Ry
     internal energy E=F+TS    =  -42139.63718356 Ry

     The total energy is F=E-TS. E is the sum of the following terms:
     one-electron contribution = -101755.02179649 Ry
     hartree contribution      =   51373.10201610 Ry
     xc contribution           =   -3545.97867137 Ry
     ewald contribution        =   22385.84815221 Ry
     one-center paw contrib.   =  -10597.58688401 Ry

     total magnetization       =     0.00 Bohr mag/cell
     absolute magnetization    =   227.18 Bohr mag/cell

     convergence has been achieved in  59 iterations

     negative rho (up, down):  2.972E-03 2.972E-03

     Forces acting on atoms (cartesian axes, Ry/au):

     atom    1 type  1   force =    -0.00011460   -0.00015864    0.00235302
     atom    2 type  2   force =     0.00011599    0.00015939    0.00235115
     atom    3 type  1   force =     0.00011808   -0.00015525   -0.04351578
     atom    4 type  2   force =    -0.00012216    0.00015481   -0.04351629
     atom    5 type  1   force =    -0.00012173   -0.00015438    0.04351696
     atom    6 type  2   force =     0.00012167    0.00015497    0.04351815
     atom    7 type  1   force =     0.00011552   -0.00015971   -0.00235440
     atom    8 type  2   force =    -0.00011808    0.00015990   -0.00235329
     atom    9 type  1   force =    -0.00011691   -0.00015823    0.00235338
     atom   10 type  2   force =     0.00011603    0.00015852    0.00235152
     atom   11 type  1   force =     0.00012000   -0.00015458   -0.04351649
     atom   12 type  2   force =    -0.00012150    0.00015403   -0.04351625
     atom   13 type  1   force =    -0.00012062   -0.00015447    0.04351648
     atom   14 type  2   force =     0.00012151    0.00015594    0.04351708
     atom   15 type  1   force =     0.00011440   -0.00015996   -0.00235305
     atom   16 type  2   force =    -0.00011712    0.00015983   -0.00235183
     atom   17 type  1   force =    -0.00011709   -0.00015963    0.00235271
     atom   18 type  2   force =     0.00011735    0.00015985    0.00235294
     atom   19 type  1   force =     0.00011955   -0.00015571   -0.04351712
[...]
     atom   25 type  1   force =    -0.00000732   -0.00001104   -0.00000064
     atom   26 type  2   force =     0.00000725    0.00001109   -0.00000050
     atom   27 type  1   force =     0.00002970   -0.00004948    0.00020434
     atom   28 type  2   force =    -0.00002974    0.00004967    0.00020444
     atom   29 type  1   force =    -0.00002968   -0.00004951   -0.00020436
     atom   30 type  2   force =     0.00002976    0.00004967   -0.00020443
     atom   31 type  1   force =     0.00000727   -0.00001108    0.00000060
     atom   32 type  2   force =    -0.00000733    0.00001111    0.00000046
     atom   33 type  1   force =    -0.00000735   -0.00001118   -0.00000059
     atom   34 type  2   force =     0.00000732    0.00001115   -0.00000066
     atom   35 type  1   force =     0.00002972   -0.00004978    0.00020437
     atom   36 type  2   force =    -0.00002973    0.00004959    0.00020432
     atom   37 type  1   force =    -0.00002966   -0.00004982   -0.00020426
     atom   38 type  2   force =     0.00002962    0.00004968   -0.00020419
     atom   39 type  1   force =     0.00000732   -0.00001118    0.00000063
     atom   40 type  2   force =    -0.00000731    0.00001110    0.00000064
     atom   41 type  1   force =    -0.00000726   -0.00001107   -0.00000058
     atom   42 type  2   force =     0.00000733    0.00001116   -0.00000049
     atom   43 type  1   force =     0.00002973   -0.00004953    0.00020441
     atom   44 type  2   force =    -0.00002965    0.00004968    0.00020452
     atom   45 type  1   force =    -0.00002969   -0.00004956   -0.00020429
     atom   46 type  2   force =     0.00002963    0.00004963   -0.00020441
     atom   47 type  1   force =     0.00000733   -0.00001113    0.00000060
     atom   48 type  2   force =    -0.00000730    0.00001116    0.00000048
     atom   49 type  1   force =    -0.00000729   -0.00001117   -0.00000061
     atom   50 type  2   force =     0.00000737    0.00001118   -0.00000070
     atom   51 type  1   force =     0.00002967   -0.00004974    0.00020435
     atom   52 type  2   force =    -0.00002969    0.00004966    0.00020424
     atom   53 type  1   force =    -0.00002967   -0.00004975   -0.00020436
     atom   54 type  2   force =     0.00002965    0.00004963   -0.00020425
     atom   55 type  1   force =     0.00000732   -0.00001114    0.00000059
     atom   56 type  2   force =    -0.00000726    0.00001116    0.00000067
     atom   57 type  1   force =    -0.00000730   -0.00001110   -0.00000064
     atom   58 type  2   force =     0.00000736    0.00001110   -0.00000053
     atom   59 type  1   force =     0.00002968   -0.00004955    0.00020435
     atom   60 type  2   force =    -0.00002963    0.00004970    0.00020444
     atom   61 type  1   force =    -0.00002972   -0.00004950   -0.00020429
     atom   62 type  2   force =     0.00002969    0.00004965   -0.00020440
     atom   63 type  1   force =     0.00000727   -0.00001110    0.00000062
     atom   64 type  2   force =    -0.00000736    0.00001110    0.00000048
     atom   65 type  1   force =    -0.00000732   -0.00001118   -0.00000063
     atom   66 type  2   force =     0.00000731    0.00001110   -0.00000064
     atom   67 type  1   force =     0.00002966   -0.00004982    0.00020426
     atom   68 type  2   force =    -0.00002962    0.00004968    0.00020419
     atom   69 type  1   force =    -0.00002972   -0.00004978   -0.00020437
     atom   70 type  2   force =     0.00002973    0.00004959   -0.00020432
     atom   71 type  1   force =     0.00000735   -0.00001118    0.00000059
     atom   72 type  2   force =    -0.00000732    0.00001115    0.00000066
     atom   73 type  1   force =    -0.00000733   -0.00001113   -0.00000060
     atom   74 type  2   force =     0.00000730    0.00001116   -0.00000048
     atom   75 type  1   force =     0.00002969   -0.00004956    0.00020429
     atom   76 type  2   force =    -0.00002963    0.00004963    0.00020441
     atom   77 type  1   force =    -0.00002973   -0.00004953   -0.00020441
     atom   78 type  2   force =     0.00002965    0.00004968   -0.00020452
     atom   79 type  1   force =     0.00000726   -0.00001107    0.00000058
     atom   80 type  2   force =    -0.00000733    0.00001116    0.00000049
     atom   81 type  1   force =    -0.00000732   -0.00001114   -0.00000059
     atom   82 type  2   force =     0.00000726    0.00001116   -0.00000067
     atom   83 type  1   force =     0.00002967   -0.00004975    0.00020436
     atom   84 type  2   force =    -0.00002965    0.00004963    0.00020425
     atom   85 type  1   force =    -0.00002967   -0.00004974   -0.00020435
     atom   86 type  2   force =     0.00002969    0.00004966   -0.00020424
     atom   87 type  1   force =     0.00000729   -0.00001117    0.00000061
     atom   88 type  2   force =    -0.00000737    0.00001118    0.00000070
     atom   89 type  1   force =    -0.00000727   -0.00001110   -0.00000062
     atom   90 type  2   force =     0.00000736    0.00001110   -0.00000048
     atom   91 type  1   force =     0.00002972   -0.00004950    0.00020429
     atom   92 type  2   force =    -0.00002969    0.00004965    0.00020440
     atom   93 type  1   force =    -0.00002968   -0.00004955   -0.00020435
     atom   94 type  2   force =     0.00002963    0.00004970   -0.00020444
     atom   95 type  1   force =     0.00000730   -0.00001110    0.00000064
     atom   96 type  2   force =    -0.00000736    0.00001110    0.00000053
     atom   97 type  1   force =    -0.00000727   -0.00001118   -0.00000058
     atom   98 type  2   force =     0.00000732    0.00001107   -0.00000070
     atom   99 type  1   force =     0.00002970   -0.00004979    0.00020436
     atom  100 type  2   force =    -0.00002977    0.00004961    0.00020427
     atom  101 type  1   force =    -0.00002972   -0.00004978   -0.00020431
     atom  102 type  2   force =     0.00002968    0.00004964   -0.00020423
     atom  103 type  1   force =     0.00000734   -0.00001117    0.00000057
     atom  104 type  2   force =    -0.00000727    0.00001108    0.00000067
     atom  105 type  1   force =    -0.00000729   -0.00001112   -0.00000057
     atom  106 type  2   force =     0.00000729    0.00001119   -0.00000057
     atom  107 type  1   force =     0.00002969   -0.00004954    0.00020434
     atom  108 type  2   force =    -0.00002977    0.00004964    0.00020447
     atom  109 type  1   force =    -0.00002971   -0.00004955   -0.00020428
     atom  110 type  2   force =     0.00002974    0.00004967   -0.00020438
     atom  111 type  1   force =     0.00000731   -0.00001118    0.00000058
     atom  112 type  2   force =    -0.00000735    0.00001115    0.00000053
     atom  113 type  1   force =    -0.00000733   -0.00001114   -0.00000059
     atom  114 type  2   force =     0.00000733    0.00001121   -0.00000064
     atom  115 type  1   force =     0.00002971   -0.00004977    0.00020428
     atom  116 type  2   force =    -0.00002976    0.00004965    0.00020419
     atom  117 type  1   force =    -0.00002974   -0.00004973   -0.00020438
     atom  118 type  2   force =     0.00002972    0.00004964   -0.00020425
     atom  119 type  1   force =     0.00000733   -0.00001121    0.00000064
     atom  120 type  2   force =    -0.00000730    0.00001119    0.00000070
     atom  121 type  1   force =    -0.00000727   -0.00001108   -0.00000060
     atom  122 type  2   force =     0.00000733    0.00001111   -0.00000046
     atom  123 type  1   force =     0.00002968   -0.00004951    0.00020436
     atom  124 type  2   force =    -0.00002976    0.00004967    0.00020443
     atom  125 type  1   force =    -0.00002970   -0.00004948   -0.00020434
     atom  126 type  2   force =     0.00002974    0.00004967   -0.00020444
     atom  127 type  1   force =     0.00000732   -0.00001104    0.00000064
     atom  128 type  2   force =    -0.00000725    0.00001109    0.00000050

     Total force =     0.001702     Total SCF correction =     0.000014


     Computing stress (Cartesian axis) and pressure


     negative rho (up, down):  9.470E-04 9.470E-04
          total   stress  (Ry/bohr**3)                   (kbar)     P=      -21.62
  -0.00015998   0.00000000  -0.00000000          -23.53        0.00       -0.00
   0.00000000  -0.00010709   0.00000000            0.00      -15.75        0.00
  -0.00000000   0.00000000  -0.00017384           -0.00        0.00      -25.57

     Energy error            =      3.6E-05
     Gradient error          =      2.0E-04

     bfgs converged in  10 scf cycles and   9 bfgs steps
     (criteria: energy <  1.0E-04 Ry, force <  1.0E-03 Ry/Bohr)

     End of BFGS Geometry Optimization

     Final energy   =  -42139.9028827455 Ry

     File /scratch/bxp912/fefcslab1.bfgs deleted, as requested
Begin final coordinates

ATOMIC_POSITIONS (crystal)
Fe1           0.0624897134        0.0624877224        0.3147556153
Fe2           0.1875102780        0.1875123051        0.3147556654
Fe1           0.1875128284        0.0624868294        0.4353662282
Fe2           0.0624871430        0.1875131825        0.4353662578
Fe1           0.0624871511        0.0624868196        0.5646337749
Fe2           0.1875128354        0.1875131971        0.5646337357
Fe1           0.1875102989        0.0624877287        0.6852443591
Fe2           0.0624897207        0.1875123219        0.6852443262
Fe1           0.0624897183        0.3124877212        0.3147556300
Fe2           0.1875102540        0.4375123009        0.3147555882
Fe1           0.1875128360        0.3124868284        0.4353662389
Fe2           0.0624871630        0.4375131810        0.4353662323
Fe1           0.0624871481        0.3124868270        0.5646337611
Fe2           0.1875128389        0.4375131810        0.5646337904
Fe1           0.1875103019        0.3124877211        0.6852443501
Fe2           0.0624896935        0.4375122763        0.6852443733
Fe1           0.0624896988        0.5624877534        0.3147556515
Fe2           0.1875103120        0.6875122703        0.3147556815
Fe1           0.1875128398        0.5624868206        0.4353662179
Fe2           0.0624871423        0.6875131843        0.4353662408
Fe1           0.0624871588        0.5624868349        0.5646337372
Fe2           0.1875128259        0.6875131778        0.5646337117
Fe1           0.1875102702        0.5624877018        0.6852443628
Fe2           0.0624897502        0.6875122799        0.6852443576
Fe1           0.0624897233        0.8124876637        0.3147556346
Fe2           0.1875103009        0.9375122842        0.3147555878
Fe1           0.1875128394        0.8124868007        0.4353662326
Fe2           0.0624871559        0.9375131618        0.4353661947
Fe1           0.0624871443        0.8124868101        0.5646337667
Fe2           0.1875128229        0.9375131612        0.5646337848
Fe1           0.1875103011        0.8124876949        0.6852443506
Fe2           0.0624897211        0.9375122718        0.6852444342
Fe1           0.3124897150        0.0624877333        0.3147556488
Fe2           0.4375103062        0.1875122908        0.3147556590
Fe1           0.4375128389        0.0624868207        0.4353662299
Fe2           0.3124871572        0.1875131981        0.4353662258
Fe1           0.3124871286        0.0624868354        0.5646337304
Fe2           0.4375128557        0.1875131775        0.5646337225
Fe1           0.4375102617        0.0624877139        0.6852443250
Fe2           0.3124897163        0.1875123056        0.6852443257
Fe1           0.3124896874        0.3124876993        0.3147556281
Fe2           0.4375102875        0.4375122767        0.3147555915
Fe1           0.4375128464        0.3124868241        0.4353662120
Fe2           0.3124871342        0.4375131726        0.4353661845
Fe1           0.3124871537        0.3124868334        0.5646337361
Fe2           0.4375128523        0.4375131836        0.5646337740
Fe1           0.4375102597        0.3124877134        0.6852443527
Fe2           0.3124897166        0.4375122886        0.6852444047
Fe1           0.3124897156        0.5624877149        0.3147556389
Fe2           0.4375102487        0.6875122784        0.3147556751
Fe1           0.4375128477        0.5624868169        0.4353662398
Fe2           0.3124871569        0.6875131726        0.4353662826
Fe1           0.3124871403        0.5624868186        0.5646337666
Fe2           0.4375128624        0.6875131798        0.5646337567
Fe1           0.4375102815        0.5624877291        0.6852443614
Fe2           0.3124896788        0.6875122838        0.6852443201
Fe1           0.3124897125        0.8124876917        0.3147556589
Fe2           0.4375102612        0.9375122933        0.3147556256
Fe1           0.4375128499        0.8124868202        0.4353662439
Fe2           0.3124871230        0.9375131604        0.4353662235
Fe1           0.3124871608        0.8124868101        0.5646337607
Fe2           0.4375128424        0.9375131714        0.5646337817
Fe1           0.4375102990        0.8124876922        0.6852443582
Fe2           0.3124897161        0.9375122845        0.6852443917
Fe1           0.5624897383        0.0624877139        0.3147556750
Fe2           0.6875102837        0.1875123056        0.3147556743
Fe1           0.6875128714        0.0624868354        0.4353662696
Fe2           0.5624871443        0.1875131775        0.4353662775
Fe1           0.5624871611        0.0624868207        0.5646337701
Fe2           0.6875128428        0.1875131981        0.5646337742
Fe1           0.6875102850        0.0624877333        0.6852443512
Fe2           0.5624896938        0.1875122908        0.6852443410
Fe1           0.5624897403        0.3124877134        0.3147556473
Fe2           0.6875102834        0.4375122886        0.3147555953
Fe1           0.6875128463        0.3124868334        0.4353662639
Fe2           0.5624871477        0.4375131836        0.4353662260
Fe1           0.5624871536        0.3124868241        0.5646337880
Fe2           0.6875128658        0.4375131726        0.5646338155
Fe1           0.6875103126        0.3124876993        0.6852443719
Fe2           0.5624897125        0.4375122767        0.6852444085
Fe1           0.5624897185        0.5624877291        0.3147556386
Fe2           0.6875103212        0.6875122838        0.3147556799
Fe1           0.6875128597        0.5624868186        0.4353662334
Fe2           0.5624871376        0.6875131798        0.4353662433
Fe1           0.5624871523        0.5624868169        0.5646337602
Fe2           0.6875128431        0.6875131726        0.5646337174
Fe1           0.6875102844        0.5624877149        0.6852443611
Fe2           0.5624897513        0.6875122784        0.6852443249
Fe1           0.5624897010        0.8124876922        0.3147556418
Fe2           0.6875102839        0.9375122845        0.3147556083
Fe1           0.6875128392        0.8124868101        0.4353662393
Fe2           0.5624871576        0.9375131714        0.4353662183
Fe1           0.5624871501        0.8124868202        0.5646337561
Fe2           0.6875128770        0.9375131604        0.5646337765
Fe1           0.6875102875        0.8124876917        0.6852443411
Fe2           0.5624897388        0.9375122933        0.6852443744
Fe1           0.8124897011        0.0624877287        0.3147556409
Fe2           0.9375102793        0.1875123219        0.3147556738
Fe1           0.9375128489        0.0624868196        0.4353662251
Fe2           0.8124871646        0.1875131971        0.4353662643
Fe1           0.8124871716        0.0624868294        0.5646337718
Fe2           0.9375128570        0.1875131825        0.5646337422
Fe1           0.9375102866        0.0624877224        0.6852443847
Fe2           0.8124897220        0.1875123051        0.6852443346
Fe1           0.8124896981        0.3124877211        0.3147556499
Fe2           0.9375103065        0.4375122763        0.3147556267
Fe1           0.9375128519        0.3124868270        0.4353662389
Fe2           0.8124871611        0.4375131810        0.4353662096
Fe1           0.8124871640        0.3124868284        0.5646337611
Fe2           0.9375128370        0.4375131810        0.5646337677
Fe1           0.9375102817        0.3124877212        0.6852443700
Fe2           0.8124897460        0.4375123009        0.6852444118
Fe1           0.8124897298        0.5624877018        0.3147556372
Fe2           0.9375102498        0.6875122799        0.3147556424
Fe1           0.9375128412        0.5624868349        0.4353662628
Fe2           0.8124871741        0.6875131778        0.4353662883
Fe1           0.8124871602        0.5624868206        0.5646337821
Fe2           0.9375128577        0.6875131843        0.5646337592
Fe1           0.9375103012        0.5624877534        0.6852443485
Fe2           0.8124896880        0.6875122703        0.6852443185
Fe1           0.8124896989        0.8124876949        0.3147556494
Fe2           0.9375102789        0.9375122718        0.3147555658
Fe1           0.9375128557        0.8124868101        0.4353662333
Fe2           0.8124871771        0.9375131612        0.4353662152
Fe1           0.8124871606        0.8124868007        0.5646337674
Fe2           0.9375128441        0.9375131618        0.5646338053
Fe1           0.9375102767        0.8124876637        0.6852443654
Fe2           0.8124896991        0.9375122842        0.6852444122
End final coordinates



     Writing output data file /scratch/bxp912/fefcslab1.save/
 
     init_run     :      8.16s CPU      8.57s WALL (       1 calls)
     electrons    :   8503.97s CPU   8749.44s WALL (      10 calls)
     update_pot   :     11.99s CPU     12.16s WALL (       9 calls)
     forces       :     48.04s CPU     49.80s WALL (      10 calls)
     stress       :   1114.91s CPU   1124.22s WALL (      10 calls)

     Called by init_run:
     wfcinit      :      5.73s CPU      5.97s WALL (       1 calls)
     potinit      :      0.95s CPU      1.01s WALL (       1 calls)
     hinit0       :      0.76s CPU      0.78s WALL (       1 calls)

     Called by electrons:
     c_bands      :   7149.56s CPU   7320.15s WALL (     384 calls)
     sum_band     :    945.00s CPU    981.24s WALL (     384 calls)
     v_of_rho     :     57.03s CPU     60.42s WALL (     393 calls)
     newd         :     86.39s CPU    109.06s WALL (     393 calls)
     PAW_pot      :    234.53s CPU    238.31s WALL (     402 calls)
     mix_rho      :     35.04s CPU     36.97s WALL (     384 calls)

     Called by c_bands:
     init_us_2    :     37.51s CPU     38.01s WALL (    1596 calls)
     regterg      :   7013.21s CPU   7178.47s WALL (     768 calls)

     Called by *egterg:
     rdiaghg      :    630.25s CPU    654.09s WALL (    3678 calls)
     h_psi        :   2915.63s CPU   2954.67s WALL (    3700 calls)
     s_psi        :    548.46s CPU    561.72s WALL (    3700 calls)
     g_psi        :     11.43s CPU     11.54s WALL (    2930 calls)

     Called by h_psi:
     h_psi:calbec :    718.00s CPU    722.61s WALL (    3700 calls)
     vloc_psi     :   1601.01s CPU   1618.28s WALL (    3700 calls)
     add_vuspsi   :    573.97s CPU    590.95s WALL (    3700 calls)

     General routines
     calbec       :   1071.40s CPU   1078.60s WALL (    4586 calls)
     fft          :     54.72s CPU     55.51s WALL (    8534 calls)
     ffts         :     16.49s CPU     16.74s WALL (    7867 calls)
     fftw         :   1660.29s CPU   1677.60s WALL ( 2639126 calls)
     interpolate  :      6.67s CPU      6.80s WALL (     786 calls)
 
     Parallel routines
     fft_scatt_xy :    221.62s CPU    223.46s WALL ( 2655527 calls)
     fft_scatt_yz :   1129.71s CPU   1142.60s WALL ( 2655527 calls)
 
     PWSCF        :      2h41m CPU      2h46m WALL

 
   This run was terminated on:  18:49:57  25Apr2022            

=------------------------------------------------------------------------------=
   JOB DONE.
=------------------------------------------------------------------------------=
